<LesHouchesEvents version="1.0">
<!--
File generated with CalcHEP-PYTHIA interface
-->
<header>
<hepml>
<samples xmlns="http://mcdb.cern.ch/hepml/0.2/"
    xmlns:xsi="http://www.w3.org/2001/XMLSchema-instance"
    xsi:schemaLocation="http://mcdb.cern.ch/hepml/0.2/ http://mcdb.cern.ch/hepml/0.2/hepml.xsd">
    <files>
        <file>
            <eventsNumber> 1000          </eventsNumber>
            <crossSection unit="pb">3.4312E-02</crossSection>
            <fileSize> 1575408          </fileSize>
            <comments> </comments>
            <location>
            </location>
        </file>
    </files>
    <description>
        <title>  </title>
        <abstract> </abstract>
        <authorComments> </authorComments>
	<experimentGroup>
	    <experiment> </experiment>
	    <group> </group>
	    <responsiblePerson> </responsiblePerson>
	    <description>  </description>
	</experimentGroup>
        <generator>
            <name>CalcHEP</name>
            <version> 3.6.30 </version>
            <homepage>http://theory.sinp.msu.ru/~pukhov/calchep.html</homepage>
            <description>
 CalcHEP - a package for calculation of Feynman diagrams
 integration over multi-particle phase space,
 generation of events and application of decay processes
            </description>
        </generator>
        <model>
             <name> </name>
             <description>i2HDM</description>
            <parameters>
                <parameter>
                    <name>alphaSMZ</name>
                    <value>0.118400</value>
			      <notation>
				      <plain> </plain>
				      <Latex> </Latex>
			      </notation>
			      <description> </description>
                </parameter>
                <parameter>
                    <name>EE</name>
                    <value>0.313430</value>
			      <notation>
				      <plain> </plain>
				      <Latex> </Latex>
			      </notation>
			      <description> </description>
                </parameter>
                <parameter>
                    <name>Q</name>
                    <value>100.000000</value>
			      <notation>
				      <plain> </plain>
				      <Latex> </Latex>
			      </notation>
			      <description> </description>
                </parameter>
                <parameter>
                    <name>Mm</name>
                    <value>0.105700</value>
			      <notation>
				      <plain> </plain>
				      <Latex> </Latex>
			      </notation>
			      <description> </description>
                </parameter>
                <parameter>
                    <name>Mtau</name>
                    <value>1.777000</value>
			      <notation>
				      <plain> </plain>
				      <Latex> </Latex>
			      </notation>
			      <description> </description>
                </parameter>
                <parameter>
                    <name>Ms</name>
                    <value>0.200000</value>
			      <notation>
				      <plain> </plain>
				      <Latex> </Latex>
			      </notation>
			      <description> </description>
                </parameter>
                <parameter>
                    <name>McMc</name>
                    <value>1.230000</value>
			      <notation>
				      <plain> </plain>
				      <Latex> </Latex>
			      </notation>
			      <description> </description>
                </parameter>
                <parameter>
                    <name>MbMb</name>
                    <value>4.250000</value>
			      <notation>
				      <plain> </plain>
				      <Latex> </Latex>
			      </notation>
			      <description> </description>
                </parameter>
                <parameter>
                    <name>Mtop</name>
                    <value>172.500000</value>
			      <notation>
				      <plain> </plain>
				      <Latex> </Latex>
			      </notation>
			      <description> </description>
                </parameter>
                <parameter>
                    <name>MH</name>
                    <value>125.000000</value>
			      <notation>
				      <plain> </plain>
				      <Latex> </Latex>
			      </notation>
			      <description> </description>
                </parameter>
                <parameter>
                    <name>MZ</name>
                    <value>91.188000</value>
			      <notation>
				      <plain> </plain>
				      <Latex> </Latex>
			      </notation>
			      <description> </description>
                </parameter>
                <parameter>
                    <name>MW</name>
                    <value>80.385000</value>
			      <notation>
				      <plain> </plain>
				      <Latex> </Latex>
			      </notation>
			      <description> </description>
                </parameter>
                <parameter>
                    <name>wtop</name>
                    <value>1.590000</value>
			      <notation>
				      <plain> </plain>
				      <Latex> </Latex>
			      </notation>
			      <description> </description>
                </parameter>
                <parameter>
                    <name>wZ</name>
                    <value>2.494440</value>
			      <notation>
				      <plain> </plain>
				      <Latex> </Latex>
			      </notation>
			      <description> </description>
                </parameter>
                <parameter>
                    <name>wW</name>
                    <value>2.088950</value>
			      <notation>
				      <plain> </plain>
				      <Latex> </Latex>
			      </notation>
			      <description> </description>
                </parameter>
                <parameter>
                    <name>s12</name>
                    <value>0.221000</value>
			      <notation>
				      <plain> </plain>
				      <Latex> </Latex>
			      </notation>
			      <description> </description>
                </parameter>
                <parameter>
                    <name>s23</name>
                    <value>0.040000</value>
			      <notation>
				      <plain> </plain>
				      <Latex> </Latex>
			      </notation>
			      <description> </description>
                </parameter>
                <parameter>
                    <name>s13</name>
                    <value>0.003500</value>
			      <notation>
				      <plain> </plain>
				      <Latex> </Latex>
			      </notation>
			      <description> </description>
                </parameter>
                <parameter>
                    <name>Maux</name>
                    <value>1.000000</value>
			      <notation>
				      <plain> </plain>
				      <Latex> </Latex>
			      </notation>
			      <description> </description>
                </parameter>
                <parameter>
                    <name>Mh1</name>
                    <value>60.000000</value>
			      <notation>
				      <plain> </plain>
				      <Latex> </Latex>
			      </notation>
			      <description> </description>
                </parameter>
                <parameter>
                    <name>Mh2</name>
                    <value>160.850000</value>
			      <notation>
				      <plain> </plain>
				      <Latex> </Latex>
			      </notation>
			      <description> </description>
                </parameter>
                <parameter>
                    <name>Mhc</name>
                    <value>160.000000</value>
			      <notation>
				      <plain> </plain>
				      <Latex> </Latex>
			      </notation>
			      <description> </description>
                </parameter>
                <parameter>
                    <name>ld345</name>
                    <value>0.000700</value>
			      <notation>
				      <plain> </plain>
				      <Latex> </Latex>
			      </notation>
			      <description> </description>
                </parameter>
                <parameter>
                    <name>ld</name>
                    <value>1.000000</value>
			      <notation>
				      <plain> </plain>
				      <Latex> </Latex>
			      </notation>
			      <description> </description>
                </parameter>
                <parameter>
                    <name>Mu</name>
                    <value>0.003000</value>
			      <notation>
				      <plain> </plain>
				      <Latex> </Latex>
			      </notation>
			      <description> </description>
                </parameter>
                <parameter>
                    <name>Md</name>
                    <value>0.005000</value>
			      <notation>
				      <plain> </plain>
				      <Latex> </Latex>
			      </notation>
			      <description> </description>
                </parameter>
                <parameter>
                    <name>wh1</name>
                    <value>0.000000</value>
			      <notation>
				      <plain> </plain>
				      <Latex> </Latex>
			      </notation>
			      <description> </description>
                </parameter>
            </parameters>
        </model>
        <process>
            <beam1>
                <particle KFcode="11">e-</particle>
                <energy unit="GeV">2.500E+02</energy>
                <pdf name= "ISR+Beamstrahlung"> </pdf>
            </beam1>
            <beam2>
                <particle KFcode="-11">e-</particle>
                <energy unit="GeV">2.500E+02</energy>
                <pdf name= "ISR+Beamstrahlung"> </pdf>
            </beam2>
	    <finalState>
		<state>
                </state>
		<notation>
		    <plain>
                   </plain>
		    <Latex> </Latex>
		</notation>
	    </finalState>
            <crossSection unit="pb">3.431E-02</crossSection>
            <subprocesses>
              <subprocess cutset_id="1" >
                <notation> e1(11),E1(-11) -> ~h+(3000025),~h-(-3000025) </notation>
                <crossSection unit="pb"> 5.280293E-02 </crossSection>
              </subprocess>
            </subprocesses>
        </process>
        <cuts>
            <cutSet cutset_id="1">
                <cut>
                    <object>
                        <name> </name>
                        <notation>
                            <plain> </plain>
                            <Latex> </Latex>
                        </notation>
                    </object>
                    <minValue> </minValue>
                    <maxValue> </maxValue>
                    <logic> </logic>
                </cut>
            </cutSet>
        </cuts>
        <authors>
       	   <author>
       	      <firstName>CalcHEP</firstName>
              <lastName> </lastName>
              <email>calchep[at]goolegroups.com</email>  
              <experiment> </experiment>
              <group> </group>
       	      <organization> </organization>
   	   </author>
         </authors>
    </description>
</samples>
</hepml>
<slha>
BLOCK QNUMBERS 3000022 # ~h1
 1 0
 2 1
 3 1
 4 0

BLOCK QNUMBERS 3000027 # ~h2
 1 0
 2 1
 3 1
 4 0

BLOCK QNUMBERS 3000025 # ~h+
 1 3
 2 1
 3 1
 4 1

BLOCK MASS
 22    0.000000E+00 # 
 23    9.118800E+01 # 
 21    0.000000E+00 # 
 24    8.038500E+01 # 
 12    0.000000E+00 # 
 11    0.000000E+00 # 
 14    0.000000E+00 # 
 13    1.057000E-01 # 
 16    0.000000E+00 # 
 15    1.777000E+00 # 
 2    3.000000E-03 # 
 1    5.000000E-03 # 
 4    1.468172E+00 # 
 3    2.000000E-01 # 
 6    1.725000E+02 # 
 5    4.663596E+00 # 
 25    1.250000E+02 # 
 3000022    6.000000E+01 # 
 3000027    1.608500E+02 # 
 3000025    1.600000E+02 # 

DECAY 25  4.185046E-03 # H 
   2.625990E-02  2  23  23  # Z,Z 
   2.109428E-01  2  24  -24  # W+,W- 
   2.103944E-03  2  22  22  # A,A 
   8.268004E-02  2  21  21  # G,G 
   2.263973E-04  2  13  -13  # e2,E2 
   6.391033E-02  2  15  -15  # e3,E3 
   5.471254E-07  2  2  -2  # u,U 
   1.519792E-06  2  1  -1  # d,D 
   2.170302E-02  2  4  -4  # c,C 
   2.431631E-03  2  3  -3  # s,S 
   5.895868E-01  2  5  -5  # b,B 
   1.529998E-04  2  3000022  3000022  # ~h1,~h1 
DECAY 3000022  0.000000E+00 # ~h1 
DECAY 3000027  5.301902E-02 # ~h2 
   9.999999E-01  2  23  3000022  # Z,~h1 
DECAY 3000025  1.497000E-01 # ~h+ 
   9.999997E-01  2  24  3000022  # W+,~h1 
</slha>

<calchep-batch>
<![CDATA[
#########################################
#            Model Info                 #
#########################################
Model:     i2HDM
#
Gauge:     Feynman


#########################################
#            Processes                  #
#########################################
Process   :    e1,E1->~h+,~h-
Decay     :     ~h+->y,y,~h1
Decay     :     ~h-->y,y,~h1
Alias :    y=e2,E2,n2,N2,G,u,U,d,D,c,C,s,S,b,B

#########################################
#            PDF's                      #
#########################################
pdf1 :       ISR&Beamstrahlung
pdf2 :       ISR&Beamstrahlung

Bunch x+y sizes (nm) : 560
Bunch length (mm)    : 0.4
Number of particles  : 20000000000
#

#########################################
#            Momenta                    #
#########################################
p1 :         250
p2 :         250


#########################################
#            Parameters                 #
#########################################
Parameter:   alphaSMZ=0.1184
Parameter:   EE=0.31343
Parameter:   Q=100
Parameter:   Mm=0.1057
Parameter:   Mtau=1.777
Parameter:   Ms=0.2
Parameter:   McMc=1.23
Parameter:   MbMb=4.25
Parameter:   Mtop=172.5
Parameter:   MH=125
Parameter:   MZ=91.188
Parameter:   MW=80.385
Parameter:   wtop=1.59
Parameter:   wZ=2.49444
Parameter:   wW=2.08895
Parameter:   s12=0.221
Parameter:   s23=0.04
Parameter:   s13=0.0035
Parameter:   Maux=1
Parameter:   Mh1=60.0
Parameter:   Mh2=160.85
Parameter:   Mhc=160.0
Parameter:   ld345=0.0007
Parameter:   ld=1.0
Parameter:   Mu=0.003
Parameter:   Md=0.005
Parameter:   wh1=0

#########################################
#            QCD running info           #
#########################################
parton dist. alpha : 0
alpha(MZ)          : 0.1172
alpha nf           : 5
alpha order        : 2
mb(mb)             : 4.2
Mtop(pole)         : 175

#########################################
#            Breit-Wigner               #
#########################################
Breit Wigner range : 2.7
T-channel widths   : OFF
GI in T-channel    : OFF
GI in S-channel    : OFF

#########################################
#            Cuts                       #
#########################################

#########################################
#            Kinematics                 #
#########################################
Kinematics :0: 12->35,46
Kinematics :0: 35->3,5
Kinematics :0: 46->4,6

#########################################
#            Regularization             #
#########################################
Regularization momentum :0: 35
Regularization mass     :0: Mhc
Regularization width    :0: wHC
Regularization power    :0: 2
Regularization momentum :0: 46
Regularization mass     :0: Mhc
Regularization width    :0: wHC
Regularization power    :0: 2
Regularization momentum :0: 36
Regularization mass     :0: Mhc
Regularization width    :0: wHC
Regularization power    :0: 2
Regularization momentum :0: 45
Regularization mass     :0: Mhc
Regularization width    :0: wHC
Regularization power    :0: 2

#########################################
#            Distributions              #
#########################################

#########################################
#            Events Generation          #
#########################################
Number of events (per run step): 1000
Max lumi [1/fb]                : 1000000000
Filename                       : SDM_ONSHELL_ex-single
Cleanup                        : False

#########################################
#            Parallelization info       #
#########################################
Parallelization method : local
Que                    : 
Walltime               : 0
Memory                 : 0
email                  : 
Max number of cpus     : 8
sleep time             : 3
nice level             : 19

#########################################
#            Vegas                      #
#########################################
nSess_1  : 10
nCalls_1 : 1000000
nSess_2  : 10
nCalls_2 : 1000000

#########################################
#           Event Generator             #
#########################################
sub-cubes      : 10000
MAX*N          : 2.000000
find new MAX   : 50

]]>
</calchep-batch>
</header>
<init>
    11   -11  2.50000000000E+02  2.50000000000E+02    -1    -1    -1    -1    -4     1
  3.43122884279E-02  0.00000000000E+00  1.00000000000E+00   1
</init>
<event>
10    1   3.4312288E-02   5.0000000E+02  -1.0000000E+00   9.3490000E-02
       11   -1    0    0    0    0  0.00000000000E+00  0.00000000000E+00  2.49998972790E+02  2.49998972790E+02  0.00000000000E+00  0.0000E+00  9.0
      -11   -1    0    0    0    0  0.00000000000E+00  0.00000000000E+00 -2.50000000000E+02  2.50000000000E+02  0.00000000000E+00  0.0000E+00  9.0
  3000025    2    1    2    0    0  1.07857262122E+01 -1.49570193765E+02  1.19359296170E+02  2.50378646942E+02  1.61106332928E+02  7.2672E-13  9.0
 -3000025    2    1    2    0    0 -1.07857262122E+01  1.49570193765E+02 -1.19360323380E+02  2.49620325848E+02  1.59924499457E+02  7.3307E-13  9.0
        4    1    3    3  500    0  3.49371309479E+01 -8.64214758007E+01  4.89473443157E+01  1.05296118836E+02  1.46817165330E+00  0.0000E+00  9.0
       -3    1    3    3    0  500 -1.73616930695E+01 -2.91409394118E+00  5.58494219034E+01  5.85586736247E+01  2.00000000000E-01  0.0000E+00  9.0
  3000022    1    3    3    0    0 -6.78971166515E+00 -6.02346240231E+01  1.45625299506E+01  8.65238544811E+01  6.00000000000E+01  0.0000E+00  9.0
      -14    1    4    4    0    0 -7.69119027305E+00  8.14386447845E+01 -2.28047190763E+01  8.49203302178E+01  0.00000000000E+00  0.0000E+00  9.0
       13    1    4    4    0    0  8.30568730247E+00 -1.77191372266E+01  2.93792397296E+00  1.97887552762E+01  1.05700000000E-01  0.0000E+00  9.0
  3000022    1    4    4    0    0 -1.14002232422E+01  8.58506862082E+01 -9.94935282766E+01  1.44911240355E+02  6.00000000000E+01  0.0000E+00  9.0
</event>
<event>
10    1   3.4312288E-02   4.9990000E+02  -1.0000000E+00   9.3490000E-02
       11   -1    0    0    0    0  0.00000000000E+00  0.00000000000E+00  2.49980484280E+02  2.49980484280E+02  0.00000000000E+00  0.0000E+00  9.0
      -11   -1    0    0    0    0  0.00000000000E+00  0.00000000000E+00 -2.49899307260E+02  2.49899307260E+02  0.00000000000E+00  0.0000E+00  9.0
  3000025    2    1    2    0    0 -7.67840835172E+01  1.55625269166E+02  8.21741566336E+01  2.49902947312E+02  1.59949589472E+02  5.6348E-13  9.0
 -3000025    2    1    2    0    0  7.67840835172E+01 -1.55625269166E+02 -8.20929796136E+01  2.49976844216E+02  1.60106668998E+02  1.1246E-12  9.0
        4    1    3    3  500    0  3.14553098803E+01  4.83933620739E+01  6.01373463672E+00  5.80488978772E+01  1.46817165330E+00  0.0000E+00  9.0
       -3    1    3    3    0  500 -4.94881385134E+01  6.60593609199E+01  3.41170797079E+01  8.93136615892E+01  2.00000000000E-01  0.0000E+00  9.0
  3000022    1    3    3    0    0 -5.87512548841E+01  4.11725461729E+01  4.20433422892E+01  1.02540387846E+02  6.00000000000E+01  0.0000E+00  9.0
      -14    1    4    4    0    0  5.62057012196E+00 -8.21344591367E+01 -2.25388263886E+01  8.53560711441E+01  0.00000000000E+00  0.0000E+00  9.0
       13    1    4    4    0    0  5.41928445623E+01 -2.70142305048E+01 -6.21989791001E+01  8.68064353899E+01  1.05700000000E-01  0.0000E+00  9.0
  3000022    1    4    4    0    0  1.69706688331E+01 -4.64765795259E+01  2.64482587485E+00  7.78143376825E+01  6.00000000000E+01  0.0000E+00  9.0
</event>
<event>
10    1   3.4312288E-02   4.6430000E+02  -1.0000000E+00   9.4320000E-02
       11   -1    0    0    0    0  0.00000000000E+00  0.00000000000E+00  2.49999998410E+02  2.49999998410E+02  0.00000000000E+00  0.0000E+00  9.0
      -11   -1    0    0    0    0  0.00000000000E+00  0.00000000000E+00 -2.15562493500E+02  2.15562493500E+02  0.00000000000E+00  0.0000E+00  9.0
  3000025    2    1    2    0    0 -1.48470601351E+02 -2.55711276716E+01  9.21971229694E+01  2.38312666389E+02  1.59985047557E+02  2.8801E-13  9.0
 -3000025    2    1    2    0    0  1.48470601351E+02  2.55711276716E+01 -5.77596180604E+01  2.27249825522E+02  1.60027834096E+02  3.9017E-13  9.0
        2    1    3    3  500    0 -5.29195423045E+01 -2.92245445324E+01 -1.68674945262E+01  6.27619657232E+01  3.00000000000E-03  0.0000E+00  9.0
       -1    1    3    3    0  500 -7.36238407712E+01  2.65101697837E+00  5.85445164562E+01  9.41007877385E+01  5.00000000000E-03  0.0000E+00  9.0
  3000022    1    3    3    0    0 -2.19272182749E+01  1.00239988247E+00  5.05201010394E+01  8.14499129271E+01  6.00000000000E+01  0.0000E+00  9.0
       -2    1    4    4    0  504  5.34268748488E+01  1.22025833913E+01  1.22047446593E+01  5.61452562442E+01  3.00000000000E-03  0.0000E+00  9.0
        1    1    4    4  504    0  3.99808282908E+00 -3.32876034062E+01 -3.25852171039E+01  4.67530277687E+01  5.00000000000E-03  0.0000E+00  9.0
  3000022    1    4    4    0    0  9.10456436726E+01  4.66561476869E+01 -3.73791456154E+01  1.24351541509E+02  6.00000000000E+01  0.0000E+00  9.0
</event>
<event>
10    1   3.4312288E-02   4.9770000E+02  -1.0000000E+00   9.3540000E-02
       11   -1    0    0    0    0  0.00000000000E+00  0.00000000000E+00  2.49756104200E+02  2.49756104200E+02  0.00000000000E+00  0.0000E+00  9.0
      -11   -1    0    0    0    0  0.00000000000E+00  0.00000000000E+00 -2.47909049480E+02  2.47909049480E+02  0.00000000000E+00  0.0000E+00  9.0
  3000025    2    1    2    0    0  1.36870730404E+02  1.15153201157E+02 -6.47398383367E+01  2.48706986802E+02  1.60218794273E+02  5.6750E-13  9.0
 -3000025    2    1    2    0    0 -1.36870730404E+02 -1.15153201157E+02  6.65868930567E+01  2.48958166873E+02  1.59851487161E+02  3.4717E-12  9.0
        4    1    3    3  500    0  3.21562439573E+01 -5.09660289354E+00  5.74237129081E+00  3.30927445604E+01  1.46817165330E+00  0.0000E+00  9.0
       -3    1    3    3    0  500  7.77309070766E+01  1.12476358949E+02 -3.84259257191E+01  1.42019776809E+02  2.00000000000E-01  0.0000E+00  9.0
  3000022    1    3    3    0    0  2.69835793701E+01  7.77344510177E+00 -3.20562839088E+01  7.35944654333E+01  6.00000000000E+01  0.0000E+00  9.0
       -2    1    4    4    0  504  2.00264564439E+01 -1.85657233387E-02 -9.28512671582E+00  2.20742585269E+01  3.00000000000E-03  0.0000E+00  9.0
        1    1    4    4  504    0 -6.05265064284E+01 -1.85552898821E+01  3.49867309995E+01  7.23313772444E+01  5.00000000000E-03  0.0000E+00  9.0
  3000022    1    4    4    0    0 -9.63706804195E+01 -9.65793455519E+01  4.08852887732E+01  1.54552531101E+02  6.00000000000E+01  0.0000E+00  9.0
</event>
<event>
10    1   3.4312288E-02   4.9650000E+02  -1.0000000E+00   9.3570000E-02
       11   -1    0    0    0    0  0.00000000000E+00  0.00000000000E+00  2.46527442910E+02  2.46527442910E+02  0.00000000000E+00  0.0000E+00  9.0
      -11   -1    0    0    0    0  0.00000000000E+00  0.00000000000E+00 -2.50000000000E+02  2.50000000000E+02  0.00000000000E+00  0.0000E+00  9.0
  3000025    2    1    2    0    0 -1.49882202513E+02  5.11652751402E+01 -1.06225734356E+02  2.48964658129E+02  1.60052911088E+02  2.0601E-12  9.0
 -3000025    2    1    2    0    0  1.49882202513E+02 -5.11652751402E+01  1.02753177266E+02  2.47562784788E+02  1.60145424422E+02  8.1432E-13  9.0
        2    1    3    3  500    0 -3.99010168790E+01 -1.14129279302E+01 -5.80748059857E+01  7.13794730381E+01  3.00000000000E-03  0.0000E+00  9.0
       -1    1    3    3    0  500 -5.70926292118E+01 -1.49236977177E+01 -9.95094877417E+00  5.98440178330E+01  5.00000000000E-03  0.0000E+00  9.0
  3000022    1    3    3    0    0 -5.28885564218E+01  7.75019007881E+01 -3.81999795965E+01  1.17741167258E+02  6.00000000000E+01  0.0000E+00  9.0
      -14    1    4    4    0    0  2.70563984273E+01  2.08866187446E+01  4.74553718360E+01  5.84834323081E+01  0.00000000000E+00  0.0000E+00  9.0
       13    1    4    4    0    0  1.61215221707E+01 -5.46910826841E+01  2.10877048718E+01  6.07924376178E+01  1.05700000000E-01  0.0000E+00  9.0
  3000022    1    4    4    0    0  1.06704281916E+02 -1.73608112006E+01  3.42101005592E+01  1.28286914863E+02  6.00000000000E+01  0.0000E+00  9.0
</event>
<event>
10    1   3.4312288E-02   4.2640000E+02  -1.0000000E+00   9.5290000E-02
       11   -1    0    0    0    0  0.00000000000E+00  0.00000000000E+00  2.43509821980E+02  2.43509821980E+02  0.00000000000E+00  0.0000E+00  9.0
      -11   -1    0    0    0    0  0.00000000000E+00  0.00000000000E+00 -1.86704557870E+02  1.86704557870E+02  0.00000000000E+00  0.0000E+00  9.0
  3000025    2    1    2    0    0 -3.94063663830E+01 -1.35149225634E+02  3.37947786921E+01  2.15799515927E+02  1.60028650892E+02  2.6170E-13  9.0
 -3000025    2    1    2    0    0  3.94063663830E+01  1.35149225634E+02  2.30104854209E+01  2.14414863916E+02  1.60081468408E+02  3.8727E-12  9.0
        2    1    3    3  500    0  1.75058499225E+01 -5.76954548162E+01 -8.57095188766E+00  6.08989450911E+01  3.00000000000E-03  0.0000E+00  9.0
       -1    1    3    3    0  500 -6.47609900173E+00  1.34724977621E+01  3.08764736133E+01  3.43045871863E+01  5.00000000000E-03  0.0000E+00  9.0
  3000022    1    3    3    0    0 -5.04361173047E+01 -9.09262685802E+01  1.14892569661E+01  1.20595983649E+02  6.00000000000E+01  0.0000E+00  9.0
       -4    1    4    4    0  504  2.43198392612E+01  1.35121423908E+01 -1.71281125430E+01  3.27041333927E+01  1.46817165330E+00  0.0000E+00  9.0
        3    1    4    4  504    0 -1.84503288036E+01  1.03487506052E+02  3.34074627079E+01  1.10300394860E+02  2.00000000000E-01  0.0000E+00  9.0
  3000022    1    4    4    0    0  3.35368559253E+01  1.81495771907E+01  6.73113525648E+00  7.14103356623E+01  6.00000000000E+01  0.0000E+00  9.0
</event>
<event>
10    1   3.4312288E-02   5.0000000E+02  -1.0000000E+00   9.3490000E-02
       11   -1    0    0    0    0  0.00000000000E+00  0.00000000000E+00  2.50000000000E+02  2.50000000000E+02  0.00000000000E+00  0.0000E+00  9.0
      -11   -1    0    0    0    0  0.00000000000E+00  0.00000000000E+00 -2.49999973250E+02  2.49999973250E+02  0.00000000000E+00  0.0000E+00  9.0
  3000025    2    1    2    0    0  1.53218579379E+02 -7.44393348260E+01 -8.88881618583E+01  2.49907143027E+02  1.59797769638E+02  1.5704E-12  9.0
 -3000025    2    1    2    0    0 -1.53218579379E+02  7.44393348260E+01  8.88881886063E+01  2.50092830227E+02  1.60087994619E+02  1.6564E-12  9.0
        2    1    3    3  500    0  3.34207604303E+00 -3.25181108404E+01  2.12643853359E-01  3.26900937795E+01  3.00000000000E-03  0.0000E+00  9.0
       -1    1    3    3    0  500  1.19885720764E+02 -3.80379696012E+01 -8.08553545813E+01  1.49522779415E+02  5.00000000000E-03  0.0000E+00  9.0
  3000022    1    3    3    0    0  2.99907825706E+01 -3.88325438379E+00 -8.24545113126E+00  6.76942698326E+01  6.00000000000E+01  0.0000E+00  9.0
       -2    1    4    4    0  504 -3.63040004958E+01 -2.42795295745E+01  2.03982791574E+01  4.82033796527E+01  3.00000000000E-03  0.0000E+00  9.0
        1    1    4    4  504    0  4.33142954524E+00  4.32158863053E+01  2.01893901692E+01  4.78955698522E+01  5.00000000000E-03  0.0000E+00  9.0
  3000022    1    4    4    0    0 -1.21246008428E+02  5.55029780940E+01  4.83005192796E+01  1.53993880721E+02  6.00000000000E+01  0.0000E+00  9.0
</event>
<event>
10    1   3.4312288E-02   4.9300000E+02  -1.0000000E+00   9.3650000E-02
       11   -1    0    0    0    0  0.00000000000E+00  0.00000000000E+00  2.43482156650E+02  2.43482156650E+02  0.00000000000E+00  0.0000E+00  9.0
      -11   -1    0    0    0    0  0.00000000000E+00  0.00000000000E+00 -2.49533583100E+02  2.49533583100E+02  0.00000000000E+00  0.0000E+00  9.0
  3000025    2    1    2    0    0  5.93161995283E+01 -1.77279465235E+02  1.46055302367E+01  2.46177928848E+02  1.59511224739E+02  3.6848E-12  9.0
 -3000025    2    1    2    0    0 -5.93161995283E+01  1.77279465235E+02 -2.06569566897E+01  2.46837810893E+02  1.59861736216E+02  2.6606E-12  9.0
        2    1    3    3  500    0  7.34970341449E+01 -7.85520760278E+01  2.88592999027E+01  1.11378193001E+02  3.00000000000E-03  0.0000E+00  9.0
       -1    1    3    3    0  500 -3.77002967479E+00 -1.54628128647E+01 -2.65063340984E+01  3.09175917201E+01  5.00000000000E-03  0.0000E+00  9.0
  3000022    1    3    3    0    0 -1.04108049419E+01 -8.32645763423E+01  1.22525644319E+01  1.03882144126E+02  6.00000000000E+01  0.0000E+00  9.0
       -2    1    4    4    0  504  1.11440967709E+01  2.08999354713E+01  2.87559370307E+01  3.72545583662E+01  3.00000000000E-03  0.0000E+00  9.0
        1    1    4    4  504    0 -4.32978901720E+01  8.64735336299E+01  9.07267412000E+00  9.71323465818E+01  5.00000000000E-03  0.0000E+00  9.0
  3000022    1    4    4    0    0 -2.71624061268E+01  6.99059961326E+01 -5.84855678404E+01  1.12450905943E+02  6.00000000000E+01  0.0000E+00  9.0
</event>
<event>
10    1   3.4312288E-02   4.4130000E+02  -1.0000000E+00   9.4890000E-02
       11   -1    0    0    0    0  0.00000000000E+00  0.00000000000E+00  1.94878717850E+02  1.94878717850E+02  0.00000000000E+00  0.0000E+00  9.0
      -11   -1    0    0    0    0  0.00000000000E+00  0.00000000000E+00 -2.49785716030E+02  2.49785716030E+02  0.00000000000E+00  0.0000E+00  9.0
  3000025    2    1    2    0    0  1.48695370126E+02 -2.32308341290E+01 -5.73295233825E+00  2.19691898776E+02  1.59942736297E+02  3.4627E-12  9.0
 -3000025    2    1    2    0    0 -1.48695370126E+02  2.32308341290E+01 -4.91740458397E+01  2.24972535113E+02  1.59826687445E+02  2.0552E-12  9.0
        4    1    3    3  500    0  6.14508341870E+01 -1.13519657421E+01 -1.00355186940E+01  6.33082878615E+01  1.46817165330E+00  0.0000E+00  9.0
       -3    1    3    3    0  500 -2.26340663013E+01 -2.06487468235E+01  3.87937157543E+00  3.08830248929E+01  2.00000000000E-01  0.0000E+00  9.0
  3000022    1    3    3    0    0  1.09878602240E+02  8.76987843632E+00  4.23194780230E-01  1.25500586022E+02  6.00000000000E+01  0.0000E+00  9.0
       -2    1    4    4    0  504  1.88436676291E+01 -9.66253607713E+00 -1.32828869007E+01  2.49976700229E+01  3.00000000000E-03  0.0000E+00  9.0
        1    1    4    4  504    0 -6.22950304465E+01 -7.75391140836E+00  1.12456838864E+01  6.37750687301E+01  5.00000000000E-03  0.0000E+00  9.0
  3000022    1    4    4    0    0 -1.05244007308E+02  4.06472816145E+01 -4.71368428255E+01  1.36199796360E+02  6.00000000000E+01  0.0000E+00  9.0
</event>
<event>
10    1   3.4312288E-02   4.3040000E+02  -1.0000000E+00   9.5180000E-02
       11   -1    0    0    0    0  0.00000000000E+00  0.00000000000E+00  2.46633337080E+02  2.46633337080E+02  0.00000000000E+00  0.0000E+00  9.0
      -11   -1    0    0    0    0  0.00000000000E+00  0.00000000000E+00 -1.87729413600E+02  1.87729413600E+02  0.00000000000E+00  0.0000E+00  9.0
  3000025    2    1    2    0    0  4.80599700577E+01 -1.30771533037E+02 -6.28973732846E+00  2.12294653729E+02  1.60057816528E+02  8.0195E-13  9.0
 -3000025    2    1    2    0    0 -4.80599700577E+01  1.30771533037E+02  6.51936608080E+01  2.22068096945E+02  1.60165763185E+02  1.0849E-13  9.0
        2    1    3    3  500    0  4.31888017145E+01 -6.07799380924E+01  1.52603562544E+01  7.61075025872E+01  3.00000000000E-03  0.0000E+00  9.0
       -1    1    3    3    0  500 -8.70366996346E+00  1.57430705171E+01 -2.47747419177E+01  3.06167601524E+01  5.00000000000E-03  0.0000E+00  9.0
  3000022    1    3    3    0    0  1.35748383071E+01 -8.57346654615E+01  3.22464833450E+00  1.05570390990E+02  6.00000000000E+01  0.0000E+00  9.0
       -4    1    4    4    0  504 -7.26600713612E+01  9.35918212396E+01  1.77064127189E+01  1.19810632051E+02  1.46817165330E+00  0.0000E+00  9.0
        3    1    4    4  504    0  2.04053483490E+01  1.07269148007E+01  3.83096485129E+00  2.33700927272E+01  2.00000000000E-01  0.0000E+00  9.0
  3000022    1    4    4    0    0  4.19475295329E+00  2.64527969978E+01  4.36562832381E+01  7.88873721676E+01  6.00000000000E+01  0.0000E+00  9.0
</event>
<event>
10    1   3.4312288E-02   4.9980000E+02  -1.0000000E+00   9.3490000E-02
       11   -1    0    0    0    0  0.00000000000E+00  0.00000000000E+00  2.49850273800E+02  2.49850273800E+02  0.00000000000E+00  0.0000E+00  9.0
      -11   -1    0    0    0    0  0.00000000000E+00  0.00000000000E+00 -2.49999544740E+02  2.49999544740E+02  0.00000000000E+00  0.0000E+00  9.0
  3000025    2    1    2    0    0  1.50211523217E+02 -2.30134446542E+00  1.19566846797E+02  2.49884776866E+02  1.59929274876E+02  2.1315E-13  9.0
 -3000025    2    1    2    0    0 -1.50211523217E+02  2.30134446542E+00 -1.19716117747E+02  2.49965041673E+02  1.59943037724E+02  1.0678E-11  9.0
        4    1    3    3  500    0 -3.20616168874E+00  1.41897393037E+01  1.15654054990E+00  1.46670136132E+01  1.46817165330E+00  0.0000E+00  9.0
       -3    1    3    3    0  500  1.15426102979E+02 -4.03427076516E+01  1.00291483825E+02  1.58142786865E+02  2.00000000000E-01  0.0000E+00  9.0
  3000022    1    3    3    0    0  3.79915819268E+01  2.38516238825E+01  1.81188224224E+01  7.70749763873E+01  6.00000000000E+01  0.0000E+00  9.0
       -4    1    4    4    0  504 -2.02653393192E+00  2.80378638466E+00 -6.12667645814E+01  6.13819193912E+01  1.46817165330E+00  0.0000E+00  9.0
        3    1    4    4  504    0 -9.30775527252E+01  9.89534512815E+00 -4.97333310805E+01  1.05994305964E+02  2.00000000000E-01  0.0000E+00  9.0
  3000022    1    4    4    0    0 -5.51074365603E+01 -1.03977870478E+01 -8.71602208537E+00  8.25888163175E+01  6.00000000000E+01  0.0000E+00  9.0
</event>
<event>
10    1   3.4312288E-02   4.9360000E+02  -1.0000000E+00   9.3630000E-02
       11   -1    0    0    0    0  0.00000000000E+00  0.00000000000E+00  2.43609097630E+02  2.43609097630E+02  0.00000000000E+00  0.0000E+00  9.0
      -11   -1    0    0    0    0  0.00000000000E+00  0.00000000000E+00 -2.50000000000E+02  2.50000000000E+02  0.00000000000E+00  0.0000E+00  9.0
  3000025    2    1    2    0    0 -1.60361868383E+02 -9.32991809085E+01  2.60824202037E+01  2.46327706908E+02  1.59926172208E+02  3.3140E-12  9.0
 -3000025    2    1    2    0    0  1.60361868383E+02  9.32991809085E+01 -3.24733225737E+01  2.47281390719E+02  1.60227661555E+02  2.5715E-12  9.0
        4    1    3    3  500    0 -4.61462005270E+01 -8.76681864392E+00 -3.11642104608E+01  5.63887619465E+01  1.46817165330E+00  0.0000E+00  9.0
       -3    1    3    3    0  500 -3.98935273974E+01 -7.52077462343E+01  2.71275855801E+01  8.93512424159E+01  2.00000000000E-01  0.0000E+00  9.0
  3000022    1    3    3    0    0 -7.43221404590E+01 -9.32461603037E+00  3.01190450853E+01  1.00587702545E+02  6.00000000000E+01  0.0000E+00  9.0
       -2    1    4    4    0  504  2.88116625713E+01  3.48616685383E+01  1.49972042752E+01  4.76483365761E+01  3.00000000000E-03  0.0000E+00  9.0
        1    1    4    4  504    0  8.56907093147E+01  1.95511611191E+01 -6.93039285602E+01  1.11929353178E+02  5.00000000000E-03  0.0000E+00  9.0
  3000022    1    4    4    0    0  4.58594964966E+01  3.88863512502E+01  2.18334017114E+01  8.77037009639E+01  6.00000000000E+01  0.0000E+00  9.0
</event>
<event>
10    1   3.4312288E-02   4.9620000E+02  -1.0000000E+00   9.3570000E-02
       11   -1    0    0    0    0  0.00000000000E+00  0.00000000000E+00  2.46369916240E+02  2.46369916240E+02  0.00000000000E+00  0.0000E+00  9.0
      -11   -1    0    0    0    0  0.00000000000E+00  0.00000000000E+00 -2.49864894050E+02  2.49864894050E+02  0.00000000000E+00  0.0000E+00  9.0
  3000025    2    1    2    0    0  1.11721095552E+02  1.44941208372E+02  4.81602842410E+01  2.47768902385E+02  1.59938922516E+02  1.8988E-12  9.0
 -3000025    2    1    2    0    0 -1.11721095552E+02 -1.44941208372E+02 -5.16552620470E+01  2.48465907913E+02  1.59929622716E+02  3.4126E-13  9.0
        4    1    3    3  500    0  1.26344134781E+01  1.02982508311E+01 -2.66575869625E+01  3.12804227079E+01  1.46817165330E+00  0.0000E+00  9.0
       -3    1    3    3    0  500  9.11627555167E+01  7.77589328816E+01  4.96575931618E+01  1.29703570479E+02  2.00000000000E-01  0.0000E+00  9.0
  3000022    1    3    3    0    0  7.92392655651E+00  5.68840246585E+01  2.51602780419E+01  8.67849091984E+01  6.00000000000E+01  0.0000E+00  9.0
       -2    1    4    4    0  504 -2.92429797911E+00  1.74782630314E+01 -2.72040411722E+01  3.24669225884E+01  3.00000000000E-03  0.0000E+00  9.0
        1    1    4    4  504    0 -6.51960737327E+01 -6.55906373973E+01 -1.46679713757E+01  9.36365802111E+01  5.00000000000E-03  0.0000E+00  9.0
  3000022    1    4    4    0    0 -4.36007238411E+01 -9.68288340058E+01 -9.78324949954E+00  1.22362405114E+02  6.00000000000E+01  0.0000E+00  9.0
</event>
<event>
10    1   3.4312288E-02   4.9760000E+02  -1.0000000E+00   9.3540000E-02
       11   -1    0    0    0    0  0.00000000000E+00  0.00000000000E+00  2.47574090150E+02  2.47574090150E+02  0.00000000000E+00  0.0000E+00  9.0
      -11   -1    0    0    0    0  0.00000000000E+00  0.00000000000E+00 -2.50000000000E+02  2.50000000000E+02  0.00000000000E+00  0.0000E+00  9.0
  3000025    2    1    2    0    0  7.45137474024E+01  4.18774642324E+01 -1.71439162736E+02  2.49632706939E+02  1.60059617929E+02  7.5811E-13  9.0
 -3000025    2    1    2    0    0 -7.45137474024E+01 -4.18774642324E+01  1.69013252886E+02  2.47941383212E+02  1.60010716190E+02  4.9067E-13  9.0
        4    1    3    3  500    0  4.14233133384E+01  1.99289384998E+01 -1.35932078926E+02  1.43501704125E+02  1.46817165330E+00  0.0000E+00  9.0
       -3    1    3    3    0  500  2.81940450416E+01 -9.49609375124E+00 -5.73922069847E-01  2.97565011196E+01  2.00000000000E-01  0.0000E+00  9.0
  3000022    1    3    3    0    0  4.89638902243E+00  3.14446194836E+01 -3.49331617405E+01  7.63745016947E+01  6.00000000000E+01  0.0000E+00  9.0
       -2    1    4    4    0  504 -2.78641185860E+00 -1.21181524867E+01  9.79404469523E+01  9.87266168212E+01  3.00000000000E-03  0.0000E+00  9.0
        1    1    4    4  504    0 -5.04719507305E+01  1.55882944121E+01  2.44333639785E+01  5.82013920239E+01  5.00000000000E-03  0.0000E+00  9.0
  3000022    1    4    4    0    0 -2.12553848131E+01 -4.53476061577E+01  4.66394419553E+01  9.10133743671E+01  6.00000000000E+01  0.0000E+00  9.0
</event>
<event>
10    1   3.4312288E-02   4.9950000E+02  -1.0000000E+00   9.3500000E-02
       11   -1    0    0    0    0  0.00000000000E+00  0.00000000000E+00  2.49967309660E+02  2.49967309660E+02  0.00000000000E+00  0.0000E+00  9.0
      -11   -1    0    0    0    0  0.00000000000E+00  0.00000000000E+00 -2.49504182630E+02  2.49504182630E+02  0.00000000000E+00  0.0000E+00  9.0
  3000025    2    1    2    0    0 -1.43602215200E+02  2.77722684732E+01 -1.23667257681E+02  2.49639281810E+02  1.60103982754E+02  1.2740E-12  9.0
 -3000025    2    1    2    0    0  1.43602215200E+02 -2.77722684732E+01  1.24130384721E+02  2.49832210491E+02  1.60046511620E+02  1.8179E-13  9.0
        2    1    3    3  500    0 -1.85285030656E+01  3.96188984797E+01  9.25133171208E-01  4.37472104594E+01  3.00000000000E-03  0.0000E+00  9.0
       -1    1    3    3    0  500 -9.10508621371E+01  9.88051707034E+00 -7.09522723105E+01  1.15853826370E+02  5.00000000000E-03  0.0000E+00  9.0
  3000022    1    3    3    0    0 -3.40228499973E+01 -2.17271470765E+01 -5.36401185410E+01  9.00382449802E+01  6.00000000000E+01  0.0000E+00  9.0
       -4    1    4    4    0  504  5.38550774765E+01 -2.32337746341E+01 -8.04150028698E+00  5.92199198633E+01  1.46817165330E+00  0.0000E+00  9.0
        3    1    4    4  504    0  2.89881759473E+01 -3.53024861905E+01  5.48334537473E+01  7.13675523319E+01  2.00000000000E-01  0.0000E+00  9.0
  3000022    1    4    4    0    0  6.07589617761E+01  3.07639923514E+01  7.73384312604E+01  1.19244738296E+02  6.00000000000E+01  0.0000E+00  9.0
</event>
<event>
10    1   3.4312288E-02   4.9990000E+02  -1.0000000E+00   9.3490000E-02
       11   -1    0    0    0    0  0.00000000000E+00  0.00000000000E+00  2.49885748140E+02  2.49885748140E+02  0.00000000000E+00  0.0000E+00  9.0
      -11   -1    0    0    0    0  0.00000000000E+00  0.00000000000E+00 -2.50000000000E+02  2.50000000000E+02  0.00000000000E+00  0.0000E+00  9.0
  3000025    2    1    2    0    0 -9.75485288021E+01  1.54311563416E+02 -5.96564631478E+01  2.49929229261E+02  1.59931085059E+02  2.6056E-12  9.0
 -3000025    2    1    2    0    0  9.75485288021E+01 -1.54311563416E+02  5.95422112848E+01  2.49956518882E+02  1.60016287707E+02  4.1863E-12  9.0
       14    1    3    3    0    0 -9.13824645154E+01  7.47073785059E+01  5.33367450738E+00  1.18154116762E+02  0.00000000000E+00  0.0000E+00  9.0
      -13    1    3    3    0    0  1.06741271417E+01 -2.44854758902E-01 -1.60631992988E+01  1.92881955686E+01  1.05700000000E-01  0.0000E+00  9.0
  3000022    1    3    3    0    0 -1.68401914283E+01  7.98490396687E+01 -4.89269383566E+01  1.12486916930E+02  6.00000000000E+01  0.0000E+00  9.0
       -2    1    4    4    0  500 -1.03098766182E+00 -3.50070985841E+01  3.88129507447E+01  5.22781507070E+01  3.00000000000E-03  0.0000E+00  9.0
        1    1    4    4  500    0  2.37685509649E+01 -1.29825086734E+01 -3.48077915064E+01  4.41029695256E+01  5.00000000000E-03  0.0000E+00  9.0
  3000022    1    4    4    0    0  7.48109654984E+01 -1.06321956159E+02  5.55370520475E+01  1.53575398649E+02  6.00000000000E+01  0.0000E+00  9.0
</event>
<event>
10    1   3.4312288E-02   4.9790000E+02  -1.0000000E+00   9.3540000E-02
       11   -1    0    0    0    0  0.00000000000E+00  0.00000000000E+00  2.47876030040E+02  2.47876030040E+02  0.00000000000E+00  0.0000E+00  9.0
      -11   -1    0    0    0    0  0.00000000000E+00  0.00000000000E+00 -2.50000000000E+02  2.50000000000E+02  0.00000000000E+00  0.0000E+00  9.0
  3000025    2    1    2    0    0 -1.86539454909E+02  3.39904703706E+01 -2.15647771241E+01  2.49034420310E+02  1.60002445522E+02  1.7527E-12  9.0
 -3000025    2    1    2    0    0  1.86539454909E+02 -3.39904703706E+01  1.94408071591E+01  2.48841609731E+02  1.59974627478E+02  2.0647E-12  9.0
        4    1    3    3  500    0 -2.48722900089E+01  1.48851125250E+01  4.15751039147E+01  5.07034730437E+01  1.46817165330E+00  0.0000E+00  9.0
       -3    1    3    3    0  500 -5.09822296208E+01 -1.57742133318E+01 -3.74217077458E+01  6.51800410705E+01  2.00000000000E-01  0.0000E+00  9.0
  3000022    1    3    3    0    0 -1.10684935278E+02  3.48795711771E+01 -2.57181732930E+01  1.33150906195E+02  6.00000000000E+01  0.0000E+00  9.0
      -14    1    4    4    0    0  1.48477492235E+02 -4.34617007677E+00 -6.51807600303E+00  1.48684028091E+02  0.00000000000E+00  0.0000E+00  9.0
       13    1    4    4    0    0  7.05679919748E+00 -5.82004905520E+00  2.70270117697E+01  2.85331723369E+01  1.05700000000E-01  0.0000E+00  9.0
  3000022    1    4    4    0    0  3.10051634765E+01 -2.38242512380E+01 -1.06812860737E+00  7.16244093028E+01  6.00000000000E+01  0.0000E+00  9.0
</event>
<event>
10    1   3.4312288E-02   5.0000000E+02  -1.0000000E+00   9.3490000E-02
       11   -1    0    0    0    0  0.00000000000E+00  0.00000000000E+00  2.49988582130E+02  2.49988582130E+02  0.00000000000E+00  0.0000E+00  9.0
      -11   -1    0    0    0    0  0.00000000000E+00  0.00000000000E+00 -2.49999352390E+02  2.49999352390E+02  0.00000000000E+00  0.0000E+00  9.0
  3000025    2    1    2    0    0  1.37078617311E+02 -1.24866728654E+02 -4.96683051526E+01  2.50047096111E+02  1.60232214264E+02  2.7032E-12  9.0
 -3000025    2    1    2    0    0 -1.37078617311E+02  1.24866728654E+02  4.96575348956E+01  2.49940838407E+02  1.60069686959E+02  7.1373E-13  9.0
        4    1    3    3  500    0  9.46707428172E+01 -7.66629465015E+00 -3.39179172102E+01  1.00865763543E+02  1.46817165330E+00  0.0000E+00  9.0
       -3    1    3    3    0  500  2.29788858895E+01 -5.25162105264E+01  8.37065014339E-01  5.73299419380E+01  2.00000000000E-01  0.0000E+00  9.0
  3000022    1    3    3    0    0  1.94289886035E+01 -6.46842234758E+01 -1.65874529564E+01  9.18513906285E+01  6.00000000000E+01  0.0000E+00  9.0
       -2    1    4    4    0  504 -4.19094010617E+01 -9.10454260382E+00  2.10110144824E+01  4.77572332946E+01  3.00000000000E-03  0.0000E+00  9.0
        1    1    4    4  504    0 -2.23292174057E+01  5.03527001900E+01 -3.04468807265E+01  6.29364833571E+01  5.00000000000E-03  0.0000E+00  9.0
  3000022    1    4    4    0    0 -7.28399988440E+01  8.36185710675E+01  5.90934011397E+01  1.39247121756E+02  6.00000000000E+01  0.0000E+00  9.0
</event>
<event>
10    1   3.4312288E-02   4.9210000E+02  -1.0000000E+00   9.3670000E-02
       11   -1    0    0    0    0  0.00000000000E+00  0.00000000000E+00  2.42217325980E+02  2.42217325980E+02  0.00000000000E+00  0.0000E+00  9.0
      -11   -1    0    0    0    0  0.00000000000E+00  0.00000000000E+00 -2.49975158650E+02  2.49975158650E+02  0.00000000000E+00  0.0000E+00  9.0
  3000025    2    1    2    0    0 -1.25902866059E+02  1.39771251323E+01  1.33631587000E+02  2.43975515499E+02  1.60061736245E+02  5.3190E-13  9.0
 -3000025    2    1    2    0    0  1.25902866059E+02 -1.39771251323E+01 -1.41389419670E+02  2.48216969126E+02  1.59918116730E+02  6.8065E-13  9.0
        2    1    3    3  500    0 -6.37511521994E+00  9.57376120714E+00 -2.35099223252E+01  2.61727998972E+01  3.00000000000E-03  0.0000E+00  9.0
       -1    1    3    3    0  500 -6.93398144625E+01  6.95595150085E+00  5.31113383764E+01  8.76196862589E+01  5.00000000000E-03  0.0000E+00  9.0
  3000022    1    3    3    0    0 -5.01879363771E+01 -2.55258757569E+00  1.04030170950E+02  1.30183029343E+02  6.00000000000E+01  0.0000E+00  9.0
       -4    1    4    4    0  504  1.52666807431E+01 -1.33396654772E+01  1.79940676563E+01  2.71470111574E+01  1.46817165330E+00  0.0000E+00  9.0
        3    1    4    4  504    0  2.99059040901E+01  3.39855656112E+01 -6.25962489650E+01  7.72509686272E+01  2.00000000000E-01  0.0000E+00  9.0
  3000022    1    4    4    0    0  8.07302812255E+01 -3.46230252673E+01 -9.67872383612E+01  1.43818989341E+02  6.00000000000E+01  0.0000E+00  9.0
</event>
<event>
10    1   3.4312288E-02   4.7330000E+02  -1.0000000E+00   9.4100000E-02
       11   -1    0    0    0    0  0.00000000000E+00  0.00000000000E+00  2.24051666920E+02  2.24051666920E+02  0.00000000000E+00  0.0000E+00  9.0
      -11   -1    0    0    0    0  0.00000000000E+00  0.00000000000E+00 -2.49958555690E+02  2.49958555690E+02  0.00000000000E+00  0.0000E+00  9.0
  3000025    2    1    2    0    0  6.72574725923E+01  7.14761741499E+01  1.31177509666E+02  2.29288921443E+02  1.60416518363E+02  1.5492E-12  9.0
 -3000025    2    1    2    0    0 -6.72574725923E+01 -7.14761741499E+01 -1.57084398426E+02  2.44721301162E+02  1.59939350764E+02  1.8914E-12  9.0
        2    1    3    3  500    0  5.36351957637E+01  6.99830016170E+01  8.06112685798E+01  1.19467700116E+02  3.00000000000E-03  0.0000E+00  9.0
       -1    1    3    3    0  500  1.71699707403E+01 -1.35843296356E+01  4.18676439609E+01  4.72466035045E+01  5.00000000000E-03  0.0000E+00  9.0
  3000022    1    3    3    0    0 -3.54769391122E+00  1.50775021685E+01  8.69859712518E+00  6.25746178228E+01  6.00000000000E+01  0.0000E+00  9.0
       -2    1    4    4    0  504 -2.79838437669E+01 -5.66510250093E+01 -5.15855361414E+01  8.15689995928E+01  3.00000000000E-03  0.0000E+00  9.0
        1    1    4    4  504    0 -3.14924144347E+01  1.46509302941E+01 -8.65125927505E+01  9.32247319912E+01  5.00000000000E-03  0.0000E+00  9.0
  3000022    1    4    4    0    0 -7.78121439023E+00 -2.94760794351E+01 -1.89862695340E+01  6.99275695779E+01  6.00000000000E+01  0.0000E+00  9.0
</event>
<event>
10    1   3.4312288E-02   4.9050000E+02  -1.0000000E+00   9.3700000E-02
       11   -1    0    0    0    0  0.00000000000E+00  0.00000000000E+00  2.40564631540E+02  2.40564631540E+02  0.00000000000E+00  0.0000E+00  9.0
      -11   -1    0    0    0    0  0.00000000000E+00  0.00000000000E+00 -2.49996651910E+02  2.49996651910E+02  0.00000000000E+00  0.0000E+00  9.0
  3000025    2    1    2    0    0 -1.51431037681E+02 -9.17797939147E+01  5.20124020927E+01  2.44045768242E+02  1.59681424347E+02  1.7027E-12  9.0
 -3000025    2    1    2    0    0  1.51431037681E+02  9.17797939147E+01 -6.14444224677E+01  2.46515515204E+02  1.60123678573E+02  1.2604E-12  9.0
        2    1    3    3  500    0 -1.36208937861E+02 -4.89190839159E+01  3.86424865825E+01  1.49797173881E+02  3.00000000000E-03  0.0000E+00  9.0
       -1    1    3    3    0  500  2.26653899947E+00 -2.88146903549E+01  4.73993998544E-01  2.89075816110E+01  5.00000000000E-03  0.0000E+00  9.0
  3000022    1    3    3    0    0 -1.74886388187E+01 -1.40460196442E+01  1.28959215117E+01  6.53410127501E+01  6.00000000000E+01  0.0000E+00  9.0
       -4    1    4    4    0  504 -2.59955906631E+00 -8.89312759036E+00  2.34567985418E+01  2.52630629875E+01  1.46817165330E+00  0.0000E+00  9.0
        3    1    4    4  504    0  3.78186154999E+01  1.77312564553E+01 -4.48500701340E+01  6.12879590526E+01  2.00000000000E-01  0.0000E+00  9.0
  3000022    1    4    4    0    0  1.16211981246E+02  8.29416650500E+01 -4.00511508752E+01  1.59964493163E+02  6.00000000000E+01  0.0000E+00  9.0
</event>
<event>
10    1   3.4312288E-02   4.8050000E+02  -1.0000000E+00   9.3930000E-02
       11   -1    0    0    0    0  0.00000000000E+00  0.00000000000E+00  2.48941713800E+02  2.48941713800E+02  0.00000000000E+00  0.0000E+00  9.0
      -11   -1    0    0    0    0  0.00000000000E+00  0.00000000000E+00 -2.31824730790E+02  2.31824730790E+02  0.00000000000E+00  0.0000E+00  9.0
  3000025    2    1    2    0    0 -7.62432197530E+01 -1.41616172561E+02  8.75997127269E+01  2.43194510747E+02  1.60005285845E+02  1.1994E-13  9.0
 -3000025    2    1    2    0    0  7.62432197530E+01  1.41616172561E+02 -7.04827297159E+01  2.37571933836E+02  1.60013873364E+02  1.5384E-13  9.0
        4    1    3    3  500    0 -2.77164285915E+01 -1.42214336531E+01 -1.53293838001E+01  3.47504694171E+01  1.46817165330E+00  0.0000E+00  9.0
       -3    1    3    3    0  500 -6.88857493674E+00 -2.71341453176E+01  7.67159189759E+01  8.16644753311E+01  2.00000000000E-01  0.0000E+00  9.0
  3000022    1    3    3    0    0 -4.16382162245E+01 -1.00260593591E+02  2.62131775511E+01  1.26779565999E+02  6.00000000000E+01  0.0000E+00  9.0
       -4    1    4    4    0  504  1.13305399530E+01 -1.82993864718E+01 -1.74530656338E+01  2.77491208670E+01  1.46817165330E+00  0.0000E+00  9.0
        3    1    4    4  504    0  5.93957905639E+01  8.37354554946E+01 -4.58329430992E+01  1.12428577847E+02  2.00000000000E-01  0.0000E+00  9.0
  3000022    1    4    4    0    0  5.51688923623E+00  7.61801035388E+01 -7.19672098337E+00  9.73942351217E+01  6.00000000000E+01  0.0000E+00  9.0
</event>
<event>
10    1   3.4312288E-02   4.9800000E+02  -1.0000000E+00   9.3530000E-02
       11   -1    0    0    0    0  0.00000000000E+00  0.00000000000E+00  2.49000872870E+02  2.49000872870E+02  0.00000000000E+00  0.0000E+00  9.0
      -11   -1    0    0    0    0  0.00000000000E+00  0.00000000000E+00 -2.49042723660E+02  2.49042723660E+02  0.00000000000E+00  0.0000E+00  9.0
  3000025    2    1    2    0    0 -1.56463512664E+02 -9.20284645230E+01  5.85700380914E+01  2.49084143346E+02  1.60194856430E+02  7.2772E-13  9.0
 -3000025    2    1    2    0    0  1.56463512664E+02  9.20284645230E+01 -5.86118888864E+01  2.48959453176E+02  1.59985582879E+02  1.6411E-12  9.0
       14    1    3    3    0    0 -8.52117600083E+01  1.16602348820E+01 -7.74838377561E+00  8.63541693976E+01  0.00000000000E+00  0.0000E+00  9.0
      -13    1    3    3    0    0 -1.20933221709E+00 -3.13943667436E+01  1.40315535194E+01  3.44087839701E+01  1.05700000000E-01  0.0000E+00  9.0
  3000022    1    3    3    0    0 -7.00424204392E+01 -7.22943326615E+01  5.22868683477E+01  1.28321189979E+02  6.00000000000E+01  0.0000E+00  9.0
       -2    1    4    4    0  500  6.92145551528E+00 -8.56995742171E+00 -2.20299855795E+01  2.46306920384E+01  3.00000000000E-03  0.0000E+00  9.0
        1    1    4    4  500    0  1.15919122369E+02  9.58198218113E+01 -3.89032643773E+01  1.55345245138E+02  5.00000000000E-03  0.0000E+00  9.0
  3000022    1    4    4    0    0  3.36229347795E+01  4.77860013344E+00  2.32136107104E+00  6.89835159994E+01  6.00000000000E+01  0.0000E+00  9.0
</event>
<event>
10    1   3.4312288E-02   5.0000000E+02  -1.0000000E+00   9.3490000E-02
       11   -1    0    0    0    0  0.00000000000E+00  0.00000000000E+00  2.49998799770E+02  2.49998799770E+02  0.00000000000E+00  0.0000E+00  9.0
      -11   -1    0    0    0    0  0.00000000000E+00  0.00000000000E+00 -2.49999997260E+02  2.49999997260E+02  0.00000000000E+00  0.0000E+00  9.0
  3000025    2    1    2    0    0 -7.07995874244E+01 -1.35928575377E+02  1.15802235714E+02  2.50044875352E+02  1.60072242159E+02  3.8374E-13  9.0
 -3000025    2    1    2    0    0  7.07995874244E+01  1.35928575377E+02 -1.15803433194E+02  2.49953921671E+02  1.59929261350E+02  8.3229E-12  9.0
        4    1    3    3  500    0  1.42624447400E+01 -1.56259993640E+00 -1.67072298510E+01  2.20713865858E+01  1.46817165330E+00  0.0000E+00  9.0
       -3    1    3    3    0  500 -6.18035793260E+01 -7.16744271152E+01  5.59869902481E+01  1.09961306817E+02  2.00000000000E-01  0.0000E+00  9.0
  3000022    1    3    3    0    0 -2.32584528381E+01 -6.26915483249E+01  7.65224753168E+01  1.18012181949E+02  6.00000000000E+01  0.0000E+00  9.0
       -4    1    4    4    0  504  1.39883975014E+01  1.65016953158E+01  1.42915468836E+01  2.59689247618E+01  1.46817165330E+00  0.0000E+00  9.0
        3    1    4    4  504    0  9.44639837841E+00  9.71787845430E+01 -9.74209694890E+01  1.37926922331E+02  2.00000000000E-01  0.0000E+00  9.0
  3000022    1    4    4    0    0  4.73647915440E+01  2.22480955189E+01 -3.26740105887E+01  8.60580745786E+01  6.00000000000E+01  0.0000E+00  9.0
</event>
<event>
10    1   3.4312288E-02   4.7840000E+02  -1.0000000E+00   9.3980000E-02
       11   -1    0    0    0    0  0.00000000000E+00  0.00000000000E+00  2.46842590170E+02  2.46842590170E+02  0.00000000000E+00  0.0000E+00  9.0
      -11   -1    0    0    0    0  0.00000000000E+00  0.00000000000E+00 -2.31758940650E+02  2.31758940650E+02  0.00000000000E+00  0.0000E+00  9.0
  3000025    2    1    2    0    0 -1.10575363020E+02 -8.31947462432E+01  1.19159979618E+02  2.42837660024E+02  1.60071083191E+02  1.7004E-12  9.0
 -3000025    2    1    2    0    0  1.10575363020E+02  8.31947462432E+01 -1.04076330098E+02  2.35763870808E+02  1.60013885592E+02  6.1842E-15  9.0
        4    1    3    3  500    0 -3.57825082631E+01 -7.02550763008E+01  1.10382626941E+01  7.96251368284E+01  1.46817165330E+00  0.0000E+00  9.0
       -3    1    3    3    0  500  1.90249423173E+00  1.95172139075E+01  1.66563529964E+01  2.57296563940E+01  2.00000000000E-01  0.0000E+00  9.0
  3000022    1    3    3    0    0 -7.66953489886E+01 -3.24568838500E+01  9.14653639271E+01  1.37482866802E+02  6.00000000000E+01  0.0000E+00  9.0
      -14    1    4    4    0    0  6.24510982061E+01  1.08412047114E+01 -3.76227575452E+01  7.37098587167E+01  0.00000000000E+00  0.0000E+00  9.0
       13    1    4    4    0    0  1.81982420515E+01  7.65289150624E+01 -2.26616293051E+01  8.18621491878E+01  1.05700000000E-01  0.0000E+00  9.0
  3000022    1    4    4    0    0  2.99260227623E+01 -4.17537353068E+00 -4.37919432471E+01  8.01918629030E+01  6.00000000000E+01  0.0000E+00  9.0
</event>
<event>
10    1   3.4312288E-02   4.7990000E+02  -1.0000000E+00   9.3950000E-02
       11   -1    0    0    0    0  0.00000000000E+00  0.00000000000E+00  2.30322969970E+02  2.30322969970E+02  0.00000000000E+00  0.0000E+00  9.0
      -11   -1    0    0    0    0  0.00000000000E+00  0.00000000000E+00 -2.49999999980E+02  2.49999999980E+02  0.00000000000E+00  0.0000E+00  9.0
  3000025    2    1    2    0    0 -5.98645279967E+01  1.62507982102E+02 -5.41261416108E+01  2.42017142732E+02  1.60156336781E+02  2.0351E-12  9.0
 -3000025    2    1    2    0    0  5.98645279967E+01 -1.62507982102E+02  3.44491116058E+01  2.38305827214E+02  1.60032246859E+02  2.8452E-12  9.0
        4    1    3    3  500    0 -1.64927001001E+01  6.26629040857E+00  1.64159064483E+01  2.41435926200E+01  1.46817165330E+00  0.0000E+00  9.0
       -3    1    3    3    0  500 -3.37964003950E+01  1.34072319373E+02 -6.55101817355E+01  1.53000677818E+02  2.00000000000E-01  0.0000E+00  9.0
  3000022    1    3    3    0    0 -9.57542750122E+00  2.21693723199E+01 -5.03186632366E+00  6.48728722934E+01  6.00000000000E+01  0.0000E+00  9.0
       -4    1    4    4    0  504  7.79659254595E+00 -1.12867136655E+02  5.42811994546E+00  1.13275758246E+02  1.46817165330E+00  0.0000E+00  9.0
        3    1    4    4  504    0  3.88613890168E+01 -1.13982495003E+01 -1.14882951793E+01  4.20968950650E+01  2.00000000000E-01  0.0000E+00  9.0
  3000022    1    4    4    0    0  1.32065464338E+01 -3.82425959468E+01  4.05092868403E+01  8.29331739038E+01  6.00000000000E+01  0.0000E+00  9.0
</event>
<event>
10    1   3.4312288E-02   4.9650000E+02  -1.0000000E+00   9.3570000E-02
       11   -1    0    0    0    0  0.00000000000E+00  0.00000000000E+00  2.49966490730E+02  2.49966490730E+02  0.00000000000E+00  0.0000E+00  9.0
      -11   -1    0    0    0    0  0.00000000000E+00  0.00000000000E+00 -2.46589287440E+02  2.46589287440E+02  0.00000000000E+00  0.0000E+00  9.0
  3000025    2    1    2    0    0  1.78389490440E+02 -6.47725587761E+01  6.47066836478E+00  2.48337272186E+02  1.60035110329E+02  1.0767E-12  9.0
 -3000025    2    1    2    0    0 -1.78389490440E+02  6.47725587761E+01 -3.09346507488E+00  2.48218505977E+02  1.59951750580E+02  7.9474E-13  9.0
       14    1    3    3    0    0  2.17885823558E+01 -5.50396129923E+01 -1.27573970654E+01  6.05545415250E+01  0.00000000000E+00  0.0000E+00  9.0
      -13    1    3    3    0    0  4.78996581939E+01  7.29368898315E-01  3.88087109433E+01  6.16525461896E+01  1.05700000000E-01  0.0000E+00  9.0
  3000022    1    3    3    0    0  1.08701249891E+02 -1.04623146822E+01 -1.95806455122E+01  1.26130184472E+02  6.00000000000E+01  0.0000E+00  9.0
       -2    1    4    4    0  500 -7.55224851947E+01  6.15382962339E+00  2.68294513478E+01  8.03824287867E+01  3.00000000000E-03  0.0000E+00  9.0
        1    1    4    4  500    0  6.71820836058E-01  4.28967928552E+01  2.13590917067E+00  4.29551895990E+01  5.00000000000E-03  0.0000E+00  9.0
  3000022    1    4    4    0    0 -1.03538826081E+02  1.57219362975E+01 -3.20588255926E+01  1.24880887591E+02  6.00000000000E+01  0.0000E+00  9.0
</event>
<event>
10    1   3.4312288E-02   4.8500000E+02  -1.0000000E+00   9.3830000E-02
       11   -1    0    0    0    0  0.00000000000E+00  0.00000000000E+00  2.35234913930E+02  2.35234913930E+02  0.00000000000E+00  0.0000E+00  9.0
      -11   -1    0    0    0    0  0.00000000000E+00  0.00000000000E+00 -2.49976991310E+02  2.49976991310E+02  0.00000000000E+00  0.0000E+00  9.0
  3000025    2    1    2    0    0 -9.33553596057E+01  7.17856661497E+01 -1.46552672427E+02  2.46795125382E+02  1.59880402442E+02  8.2885E-13  9.0
 -3000025    2    1    2    0    0  9.33553596057E+01 -7.17856661497E+01  1.31810595047E+02  2.38416779861E+02  1.60000384127E+02  7.6198E-13  9.0
        2    1    3    3  500    0 -1.98479805435E+01  1.13167941597E+01  1.23428473280E+01  2.59684048581E+01  3.00000000000E-03  0.0000E+00  9.0
       -1    1    3    3    0  500 -2.28844507686E+00 -8.68981022328E+00 -8.00921043685E+01  8.05946337529E+01  5.00000000000E-03  0.0000E+00  9.0
  3000022    1    3    3    0    0 -7.12189339854E+01  6.91586822138E+01 -7.88034153864E+01  1.40232086771E+02  6.00000000000E+01  0.0000E+00  9.0
       -2    1    4    4    0  504  5.15273224126E+01 -1.90419878049E+01  5.14568631236E+01  7.52693232738E+01  3.00000000000E-03  0.0000E+00  9.0
        1    1    4    4  504    0 -1.77826565280E+01  1.80528595728E+01 -2.11431448239E+00  2.54283102600E+01  5.00000000000E-03  0.0000E+00  9.0
  3000022    1    4    4    0    0  5.96106937211E+01 -7.07965379181E+01  8.24680464059E+01  1.37719146327E+02  6.00000000000E+01  0.0000E+00  9.0
</event>
<event>
10    1   3.4312288E-02   4.7400000E+02  -1.0000000E+00   9.4090000E-02
       11   -1    0    0    0    0  0.00000000000E+00  0.00000000000E+00  2.49959122420E+02  2.49959122420E+02  0.00000000000E+00  0.0000E+00  9.0
      -11   -1    0    0    0    0  0.00000000000E+00  0.00000000000E+00 -2.24706222410E+02  2.24706222410E+02  0.00000000000E+00  0.0000E+00  9.0
  3000025    2    1    2    0    0  1.56357227262E+02  7.80754264592E+01  7.15404140738E+00  2.37031466614E+02  1.59966812567E+02  8.4299E-13  9.0
 -3000025    2    1    2    0    0 -1.56357227262E+02 -7.80754264592E+01  1.80988586015E+01  2.37633878221E+02  1.59996677034E+02  1.2003E-12  9.0
        2    1    3    3  500    0  5.44867063113E+01  3.06100200590E+01 -4.71145143013E+01  7.82659054730E+01  3.00000000000E-03  0.0000E+00  9.0
       -1    1    3    3    0  500 -6.37823170218E+00  1.32007109014E+01  2.18558713253E+01  2.63176698120E+01  5.00000000000E-03  0.0000E+00  9.0
  3000022    1    3    3    0    0  1.08248752652E+02  3.42646954988E+01  3.24126843834E+01  1.32447891328E+02  6.00000000000E+01  0.0000E+00  9.0
       -2    1    4    4    0  504 -9.27881107043E+01  1.41584185176E+01  2.89852403089E+01  9.82356272833E+01  3.00000000000E-03  0.0000E+00  9.0
        1    1    4    4  504    0 -1.21413430190E+01 -2.06428418403E+01 -2.15742658516E+01  3.22333383561E+01  5.00000000000E-03  0.0000E+00  9.0
  3000022    1    4    4    0    0 -5.14277735399E+01 -7.15910031360E+01  1.06878841435E+01  1.07164912582E+02  6.00000000000E+01  0.0000E+00  9.0
</event>
<event>
10    1   3.4312288E-02   4.8700000E+02  -1.0000000E+00   9.3780000E-02
       11   -1    0    0    0    0  0.00000000000E+00  0.00000000000E+00  2.45596114920E+02  2.45596114920E+02  0.00000000000E+00  0.0000E+00  9.0
      -11   -1    0    0    0    0  0.00000000000E+00  0.00000000000E+00 -2.41438867980E+02  2.41438867980E+02  0.00000000000E+00  0.0000E+00  9.0
  3000025    2    1    2    0    0  1.79267074469E+02  3.65134633885E+01  1.68772290060E+01  2.43652865202E+02  1.60037373339E+02  6.1582E-13  9.0
 -3000025    2    1    2    0    0 -1.79267074469E+02 -3.65134633885E+01 -1.27199820660E+01  2.43382117694E+02  1.60009813050E+02  3.1654E-12  9.0
        4    1    3    3  500    0 -6.56024894343E+00  1.53312540110E+01 -1.55159392412E+01  2.28250764355E+01  1.46817165330E+00  0.0000E+00  9.0
       -3    1    3    3    0  500  1.18293246050E+02  4.20362117895E+01  1.41315015104E+01  1.26333188425E+02  2.00000000000E-01  0.0000E+00  9.0
  3000022    1    3    3    0    0  6.75340773630E+01 -2.08540024116E+01  1.82616667369E+01  9.44946003423E+01  6.00000000000E+01  0.0000E+00  9.0
       -4    1    4    4    0  504  6.53532135331E-01  2.63073538932E+00  1.99679744849E+01  2.02045392418E+01  1.46817165330E+00  0.0000E+00  9.0
        3    1    4    4  504    0 -1.10879664060E+02 -6.07537412901E+01 -2.49566188899E+01  1.28872765972E+02  2.00000000000E-01  0.0000E+00  9.0
  3000022    1    4    4    0    0 -6.90409425449E+01  2.16095425123E+01 -7.73133766038E+00  9.43048124811E+01  6.00000000000E+01  0.0000E+00  9.0
</event>
<event>
10    1   3.4312288E-02   4.3540000E+02  -1.0000000E+00   9.5050000E-02
       11   -1    0    0    0    0  0.00000000000E+00  0.00000000000E+00  1.90973762370E+02  1.90973762370E+02  0.00000000000E+00  0.0000E+00  9.0
      -11   -1    0    0    0    0  0.00000000000E+00  0.00000000000E+00 -2.48135975820E+02  2.48135975820E+02  0.00000000000E+00  0.0000E+00  9.0
  3000025    2    1    2    0    0 -1.37730349904E+02  4.37438285212E+01  1.87406214811E+00  2.15597701724E+02  1.59986515249E+02  6.1724E-13  9.0
 -3000025    2    1    2    0    0  1.37730349904E+02 -4.37438285212E+01 -5.90362755942E+01  2.23512036466E+02  1.59966173896E+02  1.7858E-13  9.0
        4    1    3    3  500    0  8.58791374444E-01  2.56584797758E+01 -1.28917524494E+01  2.87653944219E+01  1.46817165330E+00  0.0000E+00  9.0
       -3    1    3    3    0  500 -1.15790691680E+02  2.70329618282E+01  2.42025044713E+01  1.21342764628E+02  2.00000000000E-01  0.0000E+00  9.0
  3000022    1    3    3    0    0 -2.27984495988E+01 -8.94761308202E+00 -9.43668987478E+00  6.54895426749E+01  6.00000000000E+01  0.0000E+00  9.0
       -2    1    4    4    0  504  4.90799379495E+01 -5.66050772393E+01 -1.38815920081E+01  7.61949715144E+01  3.00000000000E-03  0.0000E+00  9.0
        1    1    4    4  504    0 -7.10798670125E+00  1.54535482334E+01 -2.83226552816E+01  3.30379850346E+01  5.00000000000E-03  0.0000E+00  9.0
  3000022    1    4    4    0    0  9.57583986556E+01 -2.59229951629E+00 -1.68320283041E+01  1.14279079917E+02  6.00000000000E+01  0.0000E+00  9.0
</event>
<event>
10    1   3.4312288E-02   4.9620000E+02  -1.0000000E+00   9.3570000E-02
       11   -1    0    0    0    0  0.00000000000E+00  0.00000000000E+00  2.46273323520E+02  2.46273323520E+02  0.00000000000E+00  0.0000E+00  9.0
      -11   -1    0    0    0    0  0.00000000000E+00  0.00000000000E+00 -2.49968803020E+02  2.49968803020E+02  0.00000000000E+00  0.0000E+00  9.0
  3000025    2    1    2    0    0  6.04411866392E+01 -1.02204089744E+02 -1.49821364797E+02  2.49346031969E+02  1.60088067345E+02  5.6317E-13  9.0
 -3000025    2    1    2    0    0 -6.04411866392E+01  1.02204089744E+02  1.46125885297E+02  2.46896094580E+02  1.59706274649E+02  1.6061E-12  9.0
        2    1    3    3  500    0 -1.01763904506E+01  6.55459922192E+00  9.55735533264E+00  1.54228643098E+01  3.00000000000E-03  0.0000E+00  9.0
       -1    1    3    3    0  500  1.56877161135E+01 -8.46984642004E+01 -7.38917344501E+01  1.13489747201E+02  5.00000000000E-03  0.0000E+00  9.0
  3000022    1    3    3    0    0  5.49298609757E+01 -2.40602247650E+01 -8.54869856792E+01  1.20433420457E+02  6.00000000000E+01  0.0000E+00  9.0
       -4    1    4    4    0  504  3.21848614811E+01  4.48260140443E+01  7.36782698695E+01  9.20645416141E+01  1.46817165330E+00  0.0000E+00  9.0
        3    1    4    4  504    0 -2.93668618636E+01  2.49221202786E+01  2.80391111945E+00  3.86189923802E+01  2.00000000000E-01  0.0000E+00  9.0
  3000022    1    4    4    0    0 -6.32591862566E+01  3.24559554204E+01  6.96437043074E+01  1.16212560585E+02  6.00000000000E+01  0.0000E+00  9.0
</event>
<event>
10    1   3.4312288E-02   4.9990000E+02  -1.0000000E+00   9.3490000E-02
       11   -1    0    0    0    0  0.00000000000E+00  0.00000000000E+00  2.49999978270E+02  2.49999978270E+02  0.00000000000E+00  0.0000E+00  9.0
      -11   -1    0    0    0    0  0.00000000000E+00  0.00000000000E+00 -2.49889010110E+02  2.49889010110E+02  0.00000000000E+00  0.0000E+00  9.0
  3000025    2    1    2    0    0 -1.42810361943E+02 -1.17472374823E+02 -5.19344025480E+01  2.49822872938E+02  1.59748951015E+02  2.0469E-12  9.0
 -3000025    2    1    2    0    0  1.42810361943E+02  1.17472374823E+02  5.20453707090E+01  2.50066115450E+02  1.60093045318E+02  3.7932E-13  9.0
        2    1    3    3  500    0  7.56085301358E+00 -2.75202397479E+01  2.73151356989E+00  2.86703901170E+01  3.00000000000E-03  0.0000E+00  9.0
       -1    1    3    3    0  500 -8.08184498206E+01  6.29594386877E+00 -1.63097939372E+01  8.26877871507E+01  5.00000000000E-03  0.0000E+00  9.0
  3000022    1    3    3    0    0 -6.95527651356E+01 -9.62480789438E+01 -3.83561221802E+01  1.38464695670E+02  6.00000000000E+01  0.0000E+00  9.0
       -4    1    4    4    0  504  4.96226556103E+01  1.07050875224E+02  3.24274962470E+01  1.22376451480E+02  1.46817165330E+00  0.0000E+00  9.0
        3    1    4    4  504    0  8.56879079651E+00 -1.43536559417E+01  1.23644526719E+01  2.07935399700E+01  2.00000000000E-01  0.0000E+00  9.0
  3000022    1    4    4    0    0  8.46189155356E+01  2.47751555406E+01  7.25342179019E+00  1.06896124000E+02  6.00000000000E+01  0.0000E+00  9.0
</event>
<event>
10    1   3.4312288E-02   4.9810000E+02  -1.0000000E+00   9.3530000E-02
       11   -1    0    0    0    0  0.00000000000E+00  0.00000000000E+00  2.49865589960E+02  2.49865589960E+02  0.00000000000E+00  0.0000E+00  9.0
      -11   -1    0    0    0    0  0.00000000000E+00  0.00000000000E+00 -2.48238726000E+02  2.48238726000E+02  0.00000000000E+00  0.0000E+00  9.0
  3000025    2    1    2    0    0 -1.11760285930E+02 -1.51365553960E+02 -3.15048075841E+01  2.48850695872E+02  1.59788058059E+02  3.6427E-12  9.0
 -3000025    2    1    2    0    0  1.11760285930E+02  1.51365553960E+02  3.31316715391E+01  2.49253620095E+02  1.60086748467E+02  5.1595E-14  9.0
        2    1    3    3  500    0  2.69754152546E+01 -4.02105870942E+01 -4.08377617989E+00  4.85926082805E+01  3.00000000000E-03  0.0000E+00  9.0
       -1    1    3    3    0  500 -5.48956251016E+01 -4.93635162761E+01 -3.08488814696E+01  8.00121235023E+01  5.00000000000E-03  0.0000E+00  9.0
  3000022    1    3    3    0    0 -8.38400760833E+01 -6.17914505902E+01  3.42785006594E+00  1.20245964089E+02  6.00000000000E+01  0.0000E+00  9.0
       -2    1    4    4    0  504  6.03743547340E+01  3.05465870321E+01 -3.43614773135E+01  7.58872045935E+01  3.00000000000E-03  0.0000E+00  9.0
        1    1    4    4  504    0  6.87306239814E-01  1.07377401050E+01  3.16993420557E+01  3.34756592794E+01  5.00000000000E-03  0.0000E+00  9.0
  3000022    1    4    4    0    0  5.06986249567E+01  1.10081226823E+02  3.57938067969E+01  1.39890756222E+02  6.00000000000E+01  0.0000E+00  9.0
</event>
<event>
10    1   3.4312288E-02   4.8610000E+02  -1.0000000E+00   9.3800000E-02
       11   -1    0    0    0    0  0.00000000000E+00  0.00000000000E+00  2.36307871720E+02  2.36307871720E+02  0.00000000000E+00  0.0000E+00  9.0
      -11   -1    0    0    0    0  0.00000000000E+00  0.00000000000E+00 -2.50000000000E+02  2.50000000000E+02  0.00000000000E+00  0.0000E+00  9.0
  3000025    2    1    2    0    0 -1.70751539853E+02 -2.01599978349E+01  5.53354332800E+01  2.41519768088E+02  1.60334881814E+02  7.2167E-13  9.0
 -3000025    2    1    2    0    0  1.70751539853E+02  2.01599978349E+01 -6.90275615540E+01  2.44788103627E+02  1.59980928702E+02  1.4538E-13  9.0
        2    1    3    3  500    0 -1.10005838080E+02 -4.20820241451E+01 -8.38381356806E+00  1.18078234687E+02  3.00000000000E-03  0.0000E+00  9.0
       -1    1    3    3    0  500  6.50398696234E+00  1.37700370058E+01  8.86653216321E+00  1.76218949931E+01  5.00000000000E-03  0.0000E+00  9.0
  3000022    1    3    3    0    0 -6.72496887343E+01  8.15198930449E+00  5.48527146847E+01  1.05819638408E+02  6.00000000000E+01  0.0000E+00  9.0
       -2    1    4    4    0  504  7.85213933438E+01  4.29491630832E+01 -2.08389461033E+01  9.18939688222E+01  3.00000000000E-03  0.0000E+00  9.0
        1    1    4    4  504    0  3.33584824228E+01 -2.97608844688E+01  1.53784314487E+01  4.72757313295E+01  5.00000000000E-03  0.0000E+00  9.0
  3000022    1    4    4    0    0  5.88716640861E+01  6.97171922009E+00 -6.35670468990E+01  1.05618403475E+02  6.00000000000E+01  0.0000E+00  9.0
</event>
<event>
10    1   3.4312288E-02   5.0000000E+02  -1.0000000E+00   9.3490000E-02
       11   -1    0    0    0    0  0.00000000000E+00  0.00000000000E+00  2.49999999840E+02  2.49999999840E+02  0.00000000000E+00  0.0000E+00  9.0
      -11   -1    0    0    0    0  0.00000000000E+00  0.00000000000E+00 -2.50000000000E+02  2.50000000000E+02  0.00000000000E+00  0.0000E+00  9.0
  3000025    2    1    2    0    0 -1.47862002130E+01 -1.05968443555E+02  1.59471959224E+02  2.50068197339E+02  1.60171329505E+02  1.7897E-13  9.0
 -3000025    2    1    2    0    0  1.47862002130E+01  1.05968443555E+02 -1.59471959384E+02  2.49931802493E+02  1.59958298695E+02  3.7059E-12  9.0
        2    1    3    3  500    0 -3.40172145061E+01 -6.97121888479E+01  2.16678763048E+01  8.05385437494E+01  3.00000000000E-03  0.0000E+00  9.0
       -1    1    3    3    0  500 -9.62149235025E+00  6.70768414102E+00  4.95735684733E+01  5.09421717024E+01  5.00000000000E-03  0.0000E+00  9.0
  3000022    1    3    3    0    0  2.88525066437E+01 -4.29639388484E+01  8.82305144455E+01  1.18587481887E+02  6.00000000000E+01  0.0000E+00  9.0
       -2    1    4    4    0  504 -3.60474471233E+01  4.90078285479E+01 -4.11346215364E+01  7.34387009759E+01  3.00000000000E-03  0.0000E+00  9.0
        1    1    4    4  504    0  1.93213644068E+01  6.15557893300E+00 -8.17512792116E+01  8.42287240333E+01  5.00000000000E-03  0.0000E+00  9.0
  3000022    1    4    4    0    0  3.15122829295E+01  5.08050360733E+01 -3.65860586358E+01  9.22643774831E+01  6.00000000000E+01  0.0000E+00  9.0
</event>
<event>
10    1   3.4312288E-02   4.9930000E+02  -1.0000000E+00   9.3510000E-02
       11   -1    0    0    0    0  0.00000000000E+00  0.00000000000E+00  2.49331272650E+02  2.49331272650E+02  0.00000000000E+00  0.0000E+00  9.0
      -11   -1    0    0    0    0  0.00000000000E+00  0.00000000000E+00 -2.49965797460E+02  2.49965797460E+02  0.00000000000E+00  0.0000E+00  9.0
  3000025    2    1    2    0    0 -1.13828349213E+02  1.53834002044E+02  1.79478705763E+01  2.50110619566E+02  1.60035629445E+02  1.1508E-12  9.0
 -3000025    2    1    2    0    0  1.13828349213E+02 -1.53834002044E+02 -1.85823953833E+01  2.49186450540E+02  1.58514316215E+02  1.7530E-13  9.0
        2    1    3    3  500    0 -2.83260536567E+01 -1.05741673224E+01 -4.47800547449E-01  3.02386981310E+01  3.00000000000E-03  0.0000E+00  9.0
       -1    1    3    3    0  500 -8.14141183216E+01  1.16753176339E+02  1.01169469617E+01  1.42695183829E+02  5.00000000000E-03  0.0000E+00  9.0
  3000022    1    3    3    0    0 -4.08817723417E+00  4.76549930280E+01  8.27872416217E+00  7.71767376050E+01  6.00000000000E+01  0.0000E+00  9.0
       -4    1    4    4    0  504  2.80942764867E+01 -5.20322584934E+01 -5.17972784763E+01  7.86241558352E+01  1.46817165330E+00  0.0000E+00  9.0
        3    1    4    4  504    0  1.83461776163E+01 -6.56941011011E+01  2.63997708290E+01  7.31388067474E+01  2.00000000000E-01  0.0000E+00  9.0
  3000022    1    4    4    0    0  6.73878951103E+01 -3.61076424504E+01  6.81511226393E+00  9.74234879580E+01  6.00000000000E+01  0.0000E+00  9.0
</event>
<event>
10    1   3.4312288E-02   4.7000000E+02  -1.0000000E+00   9.4180000E-02
       11   -1    0    0    0    0  0.00000000000E+00  0.00000000000E+00  2.49985957510E+02  2.49985957510E+02  0.00000000000E+00  0.0000E+00  9.0
      -11   -1    0    0    0    0  0.00000000000E+00  0.00000000000E+00 -2.20868334430E+02  2.20868334430E+02  0.00000000000E+00  0.0000E+00  9.0
  3000025    2    1    2    0    0  7.95658530330E+01 -1.52394343520E+02  2.27786854713E+01  2.35900500570E+02  1.59923158897E+02  7.5329E-13  9.0
 -3000025    2    1    2    0    0 -7.95658530330E+01  1.52394343520E+02  6.33893761495E+00  2.34953791361E+02  1.60026063625E+02  2.2700E-13  9.0
        2    1    3    3  500    0 -1.40569448026E+00  1.53222455950E+01  4.13275945656E+00  1.59319457936E+01  3.00000000000E-03  0.0000E+00  9.0
       -1    1    3    3    0  500  1.97391927810E-01 -2.03882189355E+01 -2.88658795505E+01  3.53405922724E+01  5.00000000000E-03  0.0000E+00  9.0
  3000022    1    3    3    0    0  8.07741555855E+01 -1.47328370180E+02  4.75118055655E+01  1.84627962504E+02  6.00000000000E+01  0.0000E+00  9.0
       -4    1    4    4    0  504 -2.29900789633E+01 -3.34804447817E+00 -1.79574020244E+01  2.94002882304E+01  1.46817165330E+00  0.0000E+00  9.0
        3    1    4    4  504    0 -4.60487919005E+01  1.18173560020E+02 -7.90153224971E+00  1.27074606965E+02  2.00000000000E-01  0.0000E+00  9.0
  3000022    1    4    4    0    0 -1.05269821687E+01  3.75688279777E+01  3.21978718890E+01  7.84788961657E+01  6.00000000000E+01  0.0000E+00  9.0
</event>
<event>
10    1   3.4312288E-02   4.9730000E+02  -1.0000000E+00   9.3550000E-02
       11   -1    0    0    0    0  0.00000000000E+00  0.00000000000E+00  2.49999964860E+02  2.49999964860E+02  0.00000000000E+00  0.0000E+00  9.0
      -11   -1    0    0    0    0  0.00000000000E+00  0.00000000000E+00 -2.47290500340E+02  2.47290500340E+02  0.00000000000E+00  0.0000E+00  9.0
  3000025    2    1    2    0    0  1.23682643976E+02 -7.70670941969E+01  1.23758298473E+02  2.49366699513E+02  1.60096536365E+02  3.2614E-12  9.0
 -3000025    2    1    2    0    0 -1.23682643976E+02  7.70670941969E+01 -1.21048833953E+02  2.47923765687E+02  1.59926983221E+02  4.7989E-13  9.0
        2    1    3    3  500    0 -1.46195707069E+01  9.07187444435E-01  3.06555323166E+01  3.39752337347E+01  3.00000000000E-03  0.0000E+00  9.0
       -1    1    3    3    0  500  6.68787090810E+01 -8.76123276967E+00  1.50638345664E+00  6.74669559421E+01  5.00000000000E-03  0.0000E+00  9.0
  3000022    1    3    3    0    0  7.14235056026E+01 -6.92130488706E+01  9.15963827000E+01  1.47924509836E+02  6.00000000000E+01  0.0000E+00  9.0
       -4    1    4    4    0  504 -2.52557186519E+01 -1.02753645559E+01 -4.43394052147E+01  5.20727647065E+01  1.46817165330E+00  0.0000E+00  9.0
        3    1    4    4  504    0 -7.77983447366E+01  4.57026773138E+01 -3.33730239586E+00  9.02911664821E+01  2.00000000000E-01  0.0000E+00  9.0
  3000022    1    4    4    0    0 -2.06285805878E+01  4.16397814389E+01 -7.33721263414E+01  1.05559834498E+02  6.00000000000E+01  0.0000E+00  9.0
</event>
<event>
10    1   3.4312288E-02   4.7850000E+02  -1.0000000E+00   9.3980000E-02
       11   -1    0    0    0    0  0.00000000000E+00  0.00000000000E+00  2.49869172140E+02  2.49869172140E+02  0.00000000000E+00  0.0000E+00  9.0
      -11   -1    0    0    0    0  0.00000000000E+00  0.00000000000E+00 -2.29118942090E+02  2.29118942090E+02  0.00000000000E+00  0.0000E+00  9.0
  3000025    2    1    2    0    0  8.70519614725E+01  7.95270437038E+01  1.43866425103E+02  2.45269045599E+02  1.59864823462E+02  2.3957E-14  9.0
 -3000025    2    1    2    0    0 -8.70519614725E+01 -7.95270437038E+01 -1.23116195053E+02  2.33719068625E+02  1.59888745314E+02  3.7412E-13  9.0
        4    1    3    3  500    0 -4.83292944513E+00  3.71330823542E+01 -2.78876013375E+00  3.75786604768E+01  1.46817165330E+00  0.0000E+00  9.0
       -3    1    3    3    0  500  4.69623382516E+01 -1.73084560997E+01  3.81731561933E+01  6.29465941920E+01  2.00000000000E-01  0.0000E+00  9.0
  3000022    1    3    3    0    0  4.49225526660E+01  5.97024174494E+01  1.08482029044E+02  1.44743790930E+02  6.00000000000E+01  0.0000E+00  9.0
      -14    1    4    4    0    0  7.18880810555E+00 -4.54168296440E+00  1.64145393553E+01  1.84862908225E+01  0.00000000000E+00  0.0000E+00  9.0
       13    1    4    4    0    0 -6.09303993766E+01 -6.83744214005E+01 -5.77619478149E+01  1.08277554728E+02  1.05700000000E-01  0.0000E+00  9.0
  3000022    1    4    4    0    0 -3.33103702020E+01 -6.61093933995E+00 -8.17687865943E+01  1.06955223075E+02  6.00000000000E+01  0.0000E+00  9.0
</event>
<event>
10    1   3.4312288E-02   4.8170000E+02  -1.0000000E+00   9.3900000E-02
       11   -1    0    0    0    0  0.00000000000E+00  0.00000000000E+00  2.39515339620E+02  2.39515339620E+02  0.00000000000E+00  0.0000E+00  9.0
      -11   -1    0    0    0    0  0.00000000000E+00  0.00000000000E+00 -2.42196012890E+02  2.42196012890E+02  0.00000000000E+00  0.0000E+00  9.0
  3000025    2    1    2    0    0  1.38513595619E+02  8.67189728510E+01 -7.49037335166E+01  2.40635796644E+02  1.59965061524E+02  4.8342E-13  9.0
 -3000025    2    1    2    0    0 -1.38513595619E+02 -8.67189728510E+01  7.22230602486E+01  2.41075555866E+02  1.61848870187E+02  1.0076E-12  9.0
        4    1    3    3  500    0  4.43185367035E+01  6.86703057374E+00 -5.69007062338E+01  7.24647134980E+01  1.46817165330E+00  0.0000E+00  9.0
       -3    1    3    3    0  500  6.56679761556E+00 -2.92597738404E+00  2.56355290541E+01  2.66252610214E+01  2.00000000000E-01  0.0000E+00  9.0
  3000022    1    3    3    0    0  8.76282613004E+01  8.27779196614E+01 -4.36385563367E+01  1.41545822125E+02  6.00000000000E+01  0.0000E+00  9.0
      -14    1    4    4    0    0  4.63046723685E+00  1.48555679342E+01  3.75625025573E+01  4.06579724513E+01  0.00000000000E+00  0.0000E+00  9.0
       13    1    4    4    0    0 -4.53085612233E+01 -2.53328238417E+00  2.49506856152E+00  4.54479898278E+01  1.05700000000E-01  0.0000E+00  9.0
  3000022    1    4    4    0    0 -9.78355016337E+01 -9.90412584023E+01  3.21654891293E+01  1.54969593588E+02  6.00000000000E+01  0.0000E+00  9.0
</event>
<event>
10    1   3.4312288E-02   4.9940000E+02  -1.0000000E+00   9.3500000E-02
       11   -1    0    0    0    0  0.00000000000E+00  0.00000000000E+00  2.49999999910E+02  2.49999999910E+02  0.00000000000E+00  0.0000E+00  9.0
      -11   -1    0    0    0    0  0.00000000000E+00  0.00000000000E+00 -2.49422576760E+02  2.49422576760E+02  0.00000000000E+00  0.0000E+00  9.0
  3000025    2    1    2    0    0  1.48620573699E+02  2.24024627151E+01 -1.18713214322E+02  2.49686908002E+02  1.60189823367E+02  1.6554E-12  9.0
 -3000025    2    1    2    0    0 -1.48620573699E+02 -2.24024627151E+01  1.19290637482E+02  2.49735668663E+02  1.59836487540E+02  1.3726E-12  9.0
        4    1    3    3  500    0  6.53666179555E-01  3.76514964263E+01 -1.43028628280E+01  4.03086823860E+01  1.46817165330E+00  0.0000E+00  9.0
       -3    1    3    3    0  500  9.67545864776E+01  1.22541619993E+01 -6.33045880245E+01  1.16271773684E+02  2.00000000000E-01  0.0000E+00  9.0
  3000022    1    3    3    0    0  5.12123210412E+01 -2.75031957106E+01 -4.11057634690E+01  9.31064519305E+01  6.00000000000E+01  0.0000E+00  9.0
       -2    1    4    4    0  504  1.11453375843E+01 -1.18278034789E+01 -2.20608819137E+00  1.64006804466E+01  3.00000000000E-03  0.0000E+00  9.0
        1    1    4    4  504    0 -8.24616501199E+01  2.66641803454E+01  2.31902175734E+01  8.97144830565E+01  5.00000000000E-03  0.0000E+00  9.0
  3000022    1    4    4    0    0 -7.73042611637E+01 -3.72388395812E+01  9.83065081014E+01  1.43620505160E+02  6.00000000000E+01  0.0000E+00  9.0
</event>
<event>
10    1   3.4312288E-02   4.5310000E+02  -1.0000000E+00   9.4590000E-02
       11   -1    0    0    0    0  0.00000000000E+00  0.00000000000E+00  2.06134152980E+02  2.06134152980E+02  0.00000000000E+00  0.0000E+00  9.0
      -11   -1    0    0    0    0  0.00000000000E+00  0.00000000000E+00 -2.48964312930E+02  2.48964312930E+02  0.00000000000E+00  0.0000E+00  9.0
  3000025    2    1    2    0    0  4.09845974585E+00 -1.58823733388E+02 -4.33890041744E+01  2.29648036608E+02  1.60043242204E+02  5.6870E-13  9.0
 -3000025    2    1    2    0    0 -4.09845974585E+00  1.58823733388E+02  5.58844226764E-01  2.25450429307E+02  1.59955644190E+02  7.0572E-13  9.0
       14    1    3    3    0    0  3.62803221992E+01 -6.15133104365E+01 -4.86588926149E+01  8.64166475295E+01  0.00000000000E+00  0.0000E+00  9.0
      -13    1    3    3    0    0 -3.11247401859E+01 -7.80827415178E+00 -1.16792925608E+01  3.41487282937E+01  1.05700000000E-01  0.0000E+00  9.0
  3000022    1    3    3    0    0 -1.05712226717E+00 -8.95021487994E+01  1.69491810015E+01  1.09082660784E+02  6.00000000000E+01  0.0000E+00  9.0
       -4    1    4    4    0  500  3.30104911905E+01  6.87656154202E-01 -1.44359985781E+01  3.60654818708E+01  1.46817165330E+00  0.0000E+00  9.0
        3    1    4    4  500    0 -5.71248674711E+00  8.34026301711E+01 -1.32783221232E+01  8.46462347816E+01  2.00000000000E-01  0.0000E+00  9.0
  3000022    1    4    4    0    0 -3.13964641897E+01  7.47334470629E+01  2.82731649281E+01  1.04738712655E+02  6.00000000000E+01  0.0000E+00  9.0
</event>
<event>
10    1   3.4312288E-02   4.7580000E+02  -1.0000000E+00   9.4040000E-02
       11   -1    0    0    0    0  0.00000000000E+00  0.00000000000E+00  2.36750977400E+02  2.36750977400E+02  0.00000000000E+00  0.0000E+00  9.0
      -11   -1    0    0    0    0  0.00000000000E+00  0.00000000000E+00 -2.39062796300E+02  2.39062796300E+02  0.00000000000E+00  0.0000E+00  9.0
  3000025    2    1    2    0    0 -2.57573145126E+01 -1.73658816737E+02 -1.29277536792E+01  2.37826809548E+02  1.59917605795E+02  3.8246E-12  9.0
 -3000025    2    1    2    0    0  2.57573145126E+01  1.73658816737E+02  1.06159347782E+01  2.37986964164E+02  1.60325522483E+02  1.3227E-12  9.0
        2    1    3    3  500    0  7.39960469241E+00 -1.68948349929E+01  3.25138020262E+01  3.73809701618E+01  3.00000000000E-03  0.0000E+00  9.0
       -1    1    3    3    0  500 -1.77986466399E+01 -2.34714171951E+01 -4.46180713858E+01  5.34646758763E+01  5.00000000000E-03  0.0000E+00  9.0
  3000022    1    3    3    0    0 -1.53582725647E+01 -1.33292564549E+02 -8.23484319081E-01  1.46981163510E+02  6.00000000000E+01  0.0000E+00  9.0
       -2    1    4    4    0  504  1.27605590665E+01  1.16436858443E+01 -3.03418894703E+01  3.49147182912E+01  3.00000000000E-03  0.0000E+00  9.0
        1    1    4    4  504    0 -1.43574379389E+01  3.58254452406E+01  4.66899633687E+01  6.05768211053E+01  5.00000000000E-03  0.0000E+00  9.0
  3000022    1    4    4    0    0  2.73541933846E+01  1.26189685652E+02 -5.73213912019E+00  1.42495424767E+02  6.00000000000E+01  0.0000E+00  9.0
</event>
<event>
10    1   3.4312288E-02   4.8160000E+02  -1.0000000E+00   9.3910000E-02
       11   -1    0    0    0    0  0.00000000000E+00  0.00000000000E+00  2.31942950620E+02  2.31942950620E+02  0.00000000000E+00  0.0000E+00  9.0
      -11   -1    0    0    0    0  0.00000000000E+00  0.00000000000E+00 -2.49999179860E+02  2.49999179860E+02  0.00000000000E+00  0.0000E+00  9.0
  3000025    2    1    2    0    0 -8.25814804786E+00 -1.79570208551E+02 -1.50742122599E+01  2.41114942816E+02  1.59986021157E+02  2.9285E-12  9.0
 -3000025    2    1    2    0    0  8.25814804786E+00  1.79570208551E+02 -2.98201697487E+00  2.40827187660E+02  1.60234781126E+02  5.2964E-13  9.0
       14    1    3    3    0    0  9.38951501394E+00 -3.83473820485E+01 -3.69432644383E+01  5.40693026544E+01  0.00000000000E+00  0.0000E+00  9.0
      -13    1    3    3    0    0 -6.62892555234E+00 -8.26306815261E+00  3.83940676093E+01  3.98288406729E+01  1.05700000000E-01  0.0000E+00  9.0
  3000022    1    3    3    0    0 -1.10187375091E+01 -1.32959758350E+02 -1.65250154312E+01  1.47216799489E+02  6.00000000000E+01  0.0000E+00  9.0
       -4    1    4    4    0  500  4.46675375655E+01  1.70191506920E+01  1.66149387286E+01  5.06265949813E+01  1.46817165330E+00  0.0000E+00  9.0
        3    1    4    4  500    0 -3.21735563998E+01  3.56420468293E+01  2.25628602207E+00  4.80689511036E+01  2.00000000000E-01  0.0000E+00  9.0
  3000022    1    4    4    0    0 -4.23583311807E+00  1.26909011031E+02 -2.18532417255E+01  1.42131641576E+02  6.00000000000E+01  0.0000E+00  9.0
</event>
<event>
10    1   3.4312288E-02   4.8720000E+02  -1.0000000E+00   9.3780000E-02
       11   -1    0    0    0    0  0.00000000000E+00  0.00000000000E+00  2.49929544160E+02  2.49929544160E+02  0.00000000000E+00  0.0000E+00  9.0
      -11   -1    0    0    0    0  0.00000000000E+00  0.00000000000E+00 -2.37408661080E+02  2.37408661080E+02  0.00000000000E+00  0.0000E+00  9.0
  3000025    2    1    2    0    0  9.72666649131E+01 -1.55805996098E+02  7.55120051289E+00  2.43710280053E+02  1.60004273227E+02  5.2303E-13  9.0
 -3000025    2    1    2    0    0 -9.72666649131E+01  1.55805996098E+02  4.96968256391E+00  2.43627925182E+02  1.59979860171E+02  7.9743E-14  9.0
        2    1    3    3  500    0  1.41120343180E+01 -7.01188244825E+01 -3.44408893515E+01  7.93849729339E+01  3.00000000000E-03  0.0000E+00  9.0
       -1    1    3    3    0  500  1.64384647937E+00 -2.38132255033E+01  3.89220224847E+01  4.56584690875E+01  5.00000000000E-03  0.0000E+00  9.0
  3000022    1    3    3    0    0  8.15107841156E+01 -6.18739461123E+01  3.07006738019E+00  1.18666838031E+02  6.00000000000E+01  0.0000E+00  9.0
       -4    1    4    4    0  504 -8.17919434099E+01  9.67927886818E+01  2.08276714580E+01  1.28431745974E+02  1.46817165330E+00  0.0000E+00  9.0
        3    1    4    4  504    0 -1.16837001102E+01 -1.38345095687E+01 -9.70078435491E+00  2.05438000470E+01  2.00000000000E-01  0.0000E+00  9.0
  3000022    1    4    4    0    0 -3.79102139310E+00  7.28477169854E+01 -6.15720453858E+00  9.46523791614E+01  6.00000000000E+01  0.0000E+00  9.0
</event>
<event>
10    1   3.4312288E-02   4.9990000E+02  -1.0000000E+00   9.3490000E-02
       11   -1    0    0    0    0  0.00000000000E+00  0.00000000000E+00  2.49882153160E+02  2.49882153160E+02  0.00000000000E+00  0.0000E+00  9.0
      -11   -1    0    0    0    0  0.00000000000E+00  0.00000000000E+00 -2.49999998560E+02  2.49999998560E+02  0.00000000000E+00  0.0000E+00  9.0
  3000025    2    1    2    0    0 -1.48469756464E+02 -1.18838404964E+02  2.66734979002E+01  2.49922523166E+02  1.59949857821E+02  3.9364E-12  9.0
 -3000025    2    1    2    0    0  1.48469756464E+02  1.18838404964E+02 -2.67913433002E+01  2.49959628566E+02  1.59988139430E+02  3.5607E-13  9.0
        4    1    3    3  500    0 -7.02575900190E+01 -1.08624637398E+02 -1.04360786898E+01  1.29794098754E+02  1.46817165330E+00  0.0000E+00  9.0
       -3    1    3    3    0  500  3.23171078263E-01  4.89600722588E+00  1.75869650232E+01  1.82597005734E+01  2.00000000000E-01  0.0000E+00  9.0
  3000022    1    3    3    0    0 -7.85353375233E+01 -1.51097747920E+01  1.95226115667E+01  1.01868723839E+02  6.00000000000E+01  0.0000E+00  9.0
       -4    1    4    4    0  504  3.12132468155E+01  3.60018686679E+01  3.50098698716E+01  5.91459875290E+01  1.46817165330E+00  0.0000E+00  9.0
        3    1    4    4  504    0  1.62728285520E+01  5.41755600288E+01 -3.63938824255E+01  6.72632955743E+01  2.00000000000E-01  0.0000E+00  9.0
  3000022    1    4    4    0    0  1.00983681096E+02  2.86609762663E+01 -2.54073307462E+01  1.23550345462E+02  6.00000000000E+01  0.0000E+00  9.0
</event>
<event>
10    1   3.4312288E-02   4.9680000E+02  -1.0000000E+00   9.3560000E-02
       11   -1    0    0    0    0  0.00000000000E+00  0.00000000000E+00  2.49999997930E+02  2.49999997930E+02  0.00000000000E+00  0.0000E+00  9.0
      -11   -1    0    0    0    0  0.00000000000E+00  0.00000000000E+00 -2.46784413770E+02  2.46784413770E+02  0.00000000000E+00  0.0000E+00  9.0
  3000025    2    1    2    0    0  3.08948821713E+01 -5.88961967982E+01 -1.76411885630E+02  2.47317624419E+02  1.60067480192E+02  2.3081E-13  9.0
 -3000025    2    1    2    0    0 -3.08948821713E+01  5.88961967982E+01  1.79627469790E+02  2.49466787279E+02  1.59826137757E+02  1.4822E-12  9.0
        2    1    3    3  500    0  4.81528761929E+00 -4.84761418781E+01 -3.95543370167E+00  4.88750323889E+01  3.00000000000E-03  0.0000E+00  9.0
       -1    1    3    3    0  500 -8.60357121933E+00  2.05268873076E+01 -4.07424336860E+01  4.64254291087E+01  5.00000000000E-03  0.0000E+00  9.0
  3000022    1    3    3    0    0  3.46831657718E+01 -3.09469422274E+01 -1.31714018242E+02  1.52017162921E+02  6.00000000000E+01  0.0000E+00  9.0
       -2    1    4    4    0  504  2.95519876801E+01  1.57364865658E+01  9.85370943306E+00  3.49006100788E+01  3.00000000000E-03  0.0000E+00  9.0
        1    1    4    4  504    0 -2.94126549365E+01  5.15785251576E+01  1.04860348719E+02  1.20503698227E+02  5.00000000000E-03  0.0000E+00  9.0
  3000022    1    4    4    0    0 -3.10342149148E+01 -8.41881492545E+00  6.49134116375E+01  9.40624789730E+01  6.00000000000E+01  0.0000E+00  9.0
</event>
<event>
10    1   3.4312288E-02   4.9050000E+02  -1.0000000E+00   9.3700000E-02
       11   -1    0    0    0    0  0.00000000000E+00  0.00000000000E+00  2.42242132280E+02  2.42242132280E+02  0.00000000000E+00  0.0000E+00  9.0
      -11   -1    0    0    0    0  0.00000000000E+00  0.00000000000E+00 -2.48309625870E+02  2.48309625870E+02  0.00000000000E+00  0.0000E+00  9.0
  3000025    2    1    2    0    0 -1.21447099117E+02  1.37517319230E+02  2.67062335637E+01  2.44920879037E+02  1.60039379857E+02  1.8349E-12  9.0
 -3000025    2    1    2    0    0  1.21447099117E+02 -1.37517319230E+02 -3.27737271487E+01  2.45630879112E+02  1.60000001905E+02  4.5129E-12  9.0
        2    1    3    3  500    0 -9.96659973651E+00  5.94696190994E+01 -1.89745735534E+01  6.32139474853E+01  3.00000000000E-03  0.0000E+00  9.0
       -1    1    3    3    0  500 -7.61932990502E+01  1.52758278410E+01  6.31578654606E-01  7.77120882037E+01  5.00000000000E-03  0.0000E+00  9.0
  3000022    1    3    3    0    0 -3.52872003306E+01  6.27718722906E+01  4.50492284633E+01  1.03994843349E+02  6.00000000000E+01  0.0000E+00  9.0
       -4    1    4    4    0  504 -6.81307842153E+00  5.86246025903E+00  7.20345270278E+00  1.16117068819E+01  1.46817165330E+00  0.0000E+00  9.0
        3    1    4    4  504    0  1.17777854356E+02 -8.40779241196E+01 -3.49006888789E+01  1.48858383658E+02  2.00000000000E-01  0.0000E+00  9.0
  3000022    1    4    4    0    0  1.04823231822E+01 -5.93018553691E+01 -5.07649097301E+00  8.51607885714E+01  6.00000000000E+01  0.0000E+00  9.0
</event>
<event>
10    1   3.4312288E-02   4.6460000E+02  -1.0000000E+00   9.4310000E-02
       11   -1    0    0    0    0  0.00000000000E+00  0.00000000000E+00  2.30922281190E+02  2.30922281190E+02  0.00000000000E+00  0.0000E+00  9.0
      -11   -1    0    0    0    0  0.00000000000E+00  0.00000000000E+00 -2.33666438490E+02  2.33666438490E+02  0.00000000000E+00  0.0000E+00  9.0
  3000025    2    1    2    0    0 -7.47331562044E+01  1.38720672911E+02  5.80916034505E+01  2.32057972959E+02  1.60149301257E+02  4.7204E-13  9.0
 -3000025    2    1    2    0    0  7.47331562044E+01 -1.38720672911E+02 -6.08357607465E+01  2.32530746728E+02  1.59815796025E+02  4.4044E-13  9.0
        4    1    3    3  500    0 -6.93779708561E+01  6.57829504504E+01 -1.81319727621E+01  9.73222655630E+01  1.46817165330E+00  0.0000E+00  9.0
       -3    1    3    3    0  500  1.23833299638E+01 -1.57582229542E+00  1.60493752582E+01  2.03335319872E+01  2.00000000000E-01  0.0000E+00  9.0
  3000022    1    3    3    0    0 -1.77385153109E+01  7.45135447554E+01  6.01742009549E+01  1.14402175408E+02  6.00000000000E+01  0.0000E+00  9.0
       -2    1    4    4    0  504  8.01296728042E+01 -4.06873303276E+01 -3.71696645833E+01  9.72512585375E+01  3.00000000000E-03  0.0000E+00  9.0
        1    1    4    4  504    0 -1.98298211633E+01 -5.54696999640E+00 -1.10849586982E+01  2.33851880011E+01  5.00000000000E-03  0.0000E+00  9.0
  3000022    1    4    4    0    0  1.44333045636E+01 -9.24863725885E+01 -1.25811374649E+01  1.11894300190E+02  6.00000000000E+01  0.0000E+00  9.0
</event>
<event>
10    1   3.4312288E-02   5.0000000E+02  -1.0000000E+00   9.3490000E-02
       11   -1    0    0    0    0  0.00000000000E+00  0.00000000000E+00  2.49999999930E+02  2.49999999930E+02  0.00000000000E+00  0.0000E+00  9.0
      -11   -1    0    0    0    0  0.00000000000E+00  0.00000000000E+00 -2.50000000000E+02  2.50000000000E+02  0.00000000000E+00  0.0000E+00  9.0
  3000025    2    1    2    0    0 -1.11620344317E+02 -1.52100569079E+02  4.06213831911E+01  2.49268884294E+02  1.57769437869E+02  3.6734E-13  9.0
 -3000025    2    1    2    0    0  1.11620344317E+02  1.52100569079E+02 -4.06213832561E+01  2.50731115636E+02  1.60069707287E+02  6.0386E-14  9.0
        2    1    3    3  500    0 -5.63158137497E+01 -6.04726072630E+01 -2.04540516631E+01  8.51279939028E+01  3.00000000000E-03  0.0000E+00  9.0
       -1    1    3    3    0  500 -4.68799691045E+01 -6.78542496404E+01  5.42082756985E+01  9.86938087050E+01  5.00000000000E-03  0.0000E+00  9.0
  3000022    1    3    3    0    0 -8.42456146259E+00 -2.37737121764E+01  6.86715915544E+00  6.54470816870E+01  6.00000000000E+01  0.0000E+00  9.0
       -4    1    4    4    0  504 -1.80198939759E+01  6.36983212029E+00  2.10571367800E+01  2.84754258531E+01  1.46817165330E+00  0.0000E+00  9.0
        3    1    4    4  504    0  4.32493228339E+01  3.66717863929E+01 -3.95439706909E+01  6.91309587728E+01  2.00000000000E-01  0.0000E+00  9.0
  3000022    1    4    4    0    0  8.63909154590E+01  1.09058950565E+02 -2.21345493450E+01  1.53124731010E+02  6.00000000000E+01  0.0000E+00  9.0
</event>
<event>
10    1   3.4312288E-02   4.7170000E+02  -1.0000000E+00   9.4140000E-02
       11   -1    0    0    0    0  0.00000000000E+00  0.00000000000E+00  2.32320059840E+02  2.32320059840E+02  0.00000000000E+00  0.0000E+00  9.0
      -11   -1    0    0    0    0  0.00000000000E+00  0.00000000000E+00 -2.39404819850E+02  2.39404819850E+02  0.00000000000E+00  0.0000E+00  9.0
  3000025    2    1    2    0    0 -1.41606740343E+02  9.71936257330E+01  2.00145411151E+01  2.35460706118E+02  1.59818936537E+02  6.0681E-13  9.0
 -3000025    2    1    2    0    0  1.41606740343E+02 -9.71936257330E+01 -2.70993011171E+01  2.36264173568E+02  1.59960363206E+02  1.1613E-12  9.0
        2    1    3    3  500    0 -1.33457646025E+01 -7.39424686890E+00 -2.43651857369E+01  2.87479843568E+01  3.00000000000E-03  0.0000E+00  9.0
       -1    1    3    3    0  500 -8.27564537163E+01  3.03472794978E+01  4.90301613405E+01  1.00863991348E+02  5.00000000000E-03  0.0000E+00  9.0
  3000022    1    3    3    0    0 -4.55045220224E+01  7.42405931036E+01 -4.65043448849E+00  1.05848730412E+02  6.00000000000E+01  0.0000E+00  9.0
       -2    1    4    4    0  504  6.19484957708E+01 -5.35258905823E+01 -1.13893248458E+01  8.26580535721E+01  3.00000000000E-03  0.0000E+00  9.0
        1    1    4    4  504    0 -1.05616969190E+01 -4.40754779180E+00  2.80808068168E+01  3.03233846368E+01  5.00000000000E-03  0.0000E+00  9.0
  3000022    1    4    4    0    0  9.02199414908E+01 -3.92601873596E+01 -4.37907830881E+01  1.23282735359E+02  6.00000000000E+01  0.0000E+00  9.0
</event>
<event>
10    1   3.4312288E-02   4.7410000E+02  -1.0000000E+00   9.4080000E-02
       11   -1    0    0    0    0  0.00000000000E+00  0.00000000000E+00  2.50000000000E+02  2.50000000000E+02  0.00000000000E+00  0.0000E+00  9.0
      -11   -1    0    0    0    0  0.00000000000E+00  0.00000000000E+00 -2.24780731460E+02  2.24780731460E+02  0.00000000000E+00  0.0000E+00  9.0
  3000025    2    1    2    0    0 -1.27870962319E+02  9.91421152855E+01  7.90534736566E+01  2.40961429272E+02  1.60102519255E+02  1.1839E-12  9.0
 -3000025    2    1    2    0    0  1.27870962319E+02 -9.91421152855E+01 -5.38342051196E+01  2.33819302196E+02  1.59978756124E+02  2.5511E-12  9.0
        4    1    3    3  500    0 -4.58589727107E+01  3.72526971297E+01 -3.11527572090E+01  6.68091208686E+01  1.46817165330E+00  0.0000E+00  9.0
       -3    1    3    3    0  500 -2.63015197502E+01  4.27612536610E+01  4.90118583152E+01  7.01605089159E+01  2.00000000000E-01  0.0000E+00  9.0
  3000022    1    3    3    0    0 -5.57104698575E+01  1.91281644944E+01  6.11943725503E+01  1.03991799487E+02  6.00000000000E+01  0.0000E+00  9.0
       -2    1    4    4    0  504 -6.84787941634E+00 -3.66472483989E+01  9.52406769236E+00  3.84788531809E+01  3.00000000000E-03  0.0000E+00  9.0
        1    1    4    4  504    0  4.70139344537E+01  1.89866351466E+01 -1.37014272700E+01  5.25217238983E+01  5.00000000000E-03  0.0000E+00  9.0
  3000022    1    4    4    0    0  8.77049072810E+01 -8.14815020332E+01 -4.96568455414E+01  1.42818725116E+02  6.00000000000E+01  0.0000E+00  9.0
</event>
<event>
10    1   3.4312288E-02   4.9670000E+02  -1.0000000E+00   9.3560000E-02
       11   -1    0    0    0    0  0.00000000000E+00  0.00000000000E+00  2.46726303470E+02  2.46726303470E+02  0.00000000000E+00  0.0000E+00  9.0
      -11   -1    0    0    0    0  0.00000000000E+00  0.00000000000E+00 -2.49940668490E+02  2.49940668490E+02  0.00000000000E+00  0.0000E+00  9.0
  3000025    2    1    2    0    0 -1.77732198352E+02 -6.39867575086E+01 -2.10380409233E+01  2.48458362262E+02  1.60018496257E+02  8.0013E-13  9.0
 -3000025    2    1    2    0    0  1.77732198352E+02  6.39867575086E+01  1.78236759063E+01  2.48208609706E+02  1.60021220598E+02  3.7768E-13  9.0
        2    1    3    3  500    0 -9.92432277028E+00 -4.41547518975E+01  1.68697558039E+01  4.82982708537E+01  3.00000000000E-03  0.0000E+00  9.0
       -1    1    3    3    0  500 -1.06074128061E+02 -2.87939008592E+01 -1.85118599009E+01  1.11460748035E+02  5.00000000000E-03  0.0000E+00  9.0
  3000022    1    3    3    0    0 -6.17337475218E+01  8.96189524793E+00 -1.93959368264E+01  8.86993433735E+01  6.00000000000E+01  0.0000E+00  9.0
       -4    1    4    4    0  504  3.96714778391E+01  2.63471307493E+01 -2.89039723953E+01  5.57278440359E+01  1.46817165330E+00  0.0000E+00  9.0
        3    1    4    4  504    0  4.31284604988E+01 -3.10441488978E+01  2.62011123828E+01  5.92481356321E+01  2.00000000000E-01  0.0000E+00  9.0
  3000022    1    4    4    0    0  9.49322600146E+01  6.86837756583E+01  2.05265359188E+01  1.33232630039E+02  6.00000000000E+01  0.0000E+00  9.0
</event>
<event>
10    1   3.4312288E-02   4.9860000E+02  -1.0000000E+00   9.3520000E-02
       11   -1    0    0    0    0  0.00000000000E+00  0.00000000000E+00  2.49281282060E+02  2.49281282060E+02  0.00000000000E+00  0.0000E+00  9.0
      -11   -1    0    0    0    0  0.00000000000E+00  0.00000000000E+00 -2.49314519650E+02  2.49314519650E+02  0.00000000000E+00  0.0000E+00  9.0
  3000025    2    1    2    0    0  1.65581721428E+02 -1.57138384449E+00  9.60212996536E+01  2.49125171189E+02  1.59447437154E+02  2.1026E-12  9.0
 -3000025    2    1    2    0    0 -1.65581721428E+02  1.57138384449E+00 -9.60545372456E+01  2.49470630516E+02  1.59966701680E+02  1.3929E-12  9.0
        2    1    3    3  500    0  9.56944750987E+01 -5.60804863910E+00  2.42168584775E+01  9.88703141366E+01  3.00000000000E-03  0.0000E+00  9.0
       -1    1    3    3    0  500  1.80568026107E+01  3.91447758971E+01  3.70314732468E+01  5.68303760008E+01  5.00000000000E-03  0.0000E+00  9.0
  3000022    1    3    3    0    0  5.18304437170E+01 -3.51081111021E+01  3.47729679291E+01  9.34244810511E+01  6.00000000000E+01  0.0000E+00  9.0
      -14    1    4    4    0    0 -9.44513203630E+01 -1.52707329252E+01 -7.11831984253E+01  1.19253070990E+02  0.00000000000E+00  0.0000E+00  9.0
       13    1    4    4    0    0  1.65326513027E+01 -7.33148652756E+00 -8.73053180891E+00  2.00826445459E+01  1.05700000000E-01  0.0000E+00  9.0
  3000022    1    4    4    0    0 -8.76630523689E+01  2.41736032970E+01 -1.61408070117E+01  1.10134914981E+02  6.00000000000E+01  0.0000E+00  9.0
</event>
<event>
10    1   3.4312288E-02   4.9560000E+02  -1.0000000E+00   9.3590000E-02
       11   -1    0    0    0    0  0.00000000000E+00  0.00000000000E+00  2.50000000000E+02  2.50000000000E+02  0.00000000000E+00  0.0000E+00  9.0
      -11   -1    0    0    0    0  0.00000000000E+00  0.00000000000E+00 -2.45584164240E+02  2.45584164240E+02  0.00000000000E+00  0.0000E+00  9.0
  3000025    2    1    2    0    0  1.06986095901E+02  1.17927090400E+02 -1.00081899656E+02  2.46903474863E+02  1.59975360273E+02  1.1496E-12  9.0
 -3000025    2    1    2    0    0 -1.06986095901E+02 -1.17927090400E+02  1.04497735416E+02  2.48680689373E+02  1.59904612797E+02  4.4782E-13  9.0
        4    1    3    3  500    0  1.47158559540E+01 -1.90491347241E+01 -2.19620577320E+01  3.26176862764E+01  1.46817165330E+00  0.0000E+00  9.0
       -3    1    3    3    0  500  1.00264413752E+01  7.60215316881E+01 -5.23972545757E+01  9.28725744983E+01  2.00000000000E-01  0.0000E+00  9.0
  3000022    1    3    3    0    0  8.22437985718E+01  6.09546934365E+01 -2.57225873485E+01  1.21413214089E+02  6.00000000000E+01  0.0000E+00  9.0
       -4    1    4    4    0  504  2.06833048929E+00 -2.49079305804E+01 -1.54138152178E+01  2.94010922311E+01  1.46817165330E+00  0.0000E+00  9.0
        3    1    4    4  504    0 -2.31963405477E+01 -4.59724205517E+01  8.47918035406E+01  9.92029415585E+01  2.00000000000E-01  0.0000E+00  9.0
  3000022    1    4    4    0    0 -8.58580858425E+01 -4.70467392678E+01  3.51197470933E+01  1.20076655584E+02  6.00000000000E+01  0.0000E+00  9.0
</event>
<event>
10    1   3.4312288E-02   4.9630000E+02  -1.0000000E+00   9.3570000E-02
       11   -1    0    0    0    0  0.00000000000E+00  0.00000000000E+00  2.46530295970E+02  2.46530295970E+02  0.00000000000E+00  0.0000E+00  9.0
      -11   -1    0    0    0    0  0.00000000000E+00  0.00000000000E+00 -2.49734276140E+02  2.49734276140E+02  0.00000000000E+00  0.0000E+00  9.0
  3000025    2    1    2    0    0 -1.51505960128E+02 -3.03880909867E+01  1.08249872209E+02  2.47410335056E+02  1.60051076319E+02  6.8447E-13  9.0
 -3000025    2    1    2    0    0  1.51505960128E+02  3.03880909867E+01 -1.11453852379E+02  2.48854237049E+02  1.60090530822E+02  8.9464E-15  9.0
        4    1    3    3  500    0 -3.79031331437E+01 -5.03062128662E+00  1.38914649996E+00  3.82889005932E+01  1.46817165330E+00  0.0000E+00  9.0
       -3    1    3    3    0  500 -9.69855445927E+01 -7.93420042321E+00  1.06783011267E+02  1.44470754451E+02  2.00000000000E-01  0.0000E+00  9.0
  3000022    1    3    3    0    0 -1.66172823902E+01 -1.74232692767E+01  7.77144415495E-02  6.46506800108E+01  6.00000000000E+01  0.0000E+00  9.0
       -4    1    4    4    0  504  2.72490294719E+01  4.58719448247E+01  3.82115659685E+00  5.35116968046E+01  1.46817165330E+00  0.0000E+00  9.0
        3    1    4    4  504    0  1.67066619402E+01 -2.90963186790E+01 -2.91425199671E+01  4.44413634341E+01  2.00000000000E-01  0.0000E+00  9.0
  3000022    1    4    4    0    0  1.07550268716E+02  1.36124648416E+01 -8.61324890083E+01  1.50901176810E+02  6.00000000000E+01  0.0000E+00  9.0
</event>
<event>
10    1   3.4312288E-02   4.9060000E+02  -1.0000000E+00   9.3700000E-02
       11   -1    0    0    0    0  0.00000000000E+00  0.00000000000E+00  2.48954752290E+02  2.48954752290E+02  0.00000000000E+00  0.0000E+00  9.0
      -11   -1    0    0    0    0  0.00000000000E+00  0.00000000000E+00 -2.41665333400E+02  2.41665333400E+02  0.00000000000E+00  0.0000E+00  9.0
  3000025    2    1    2    0    0 -6.31492266581E+01  1.53697084098E+02 -7.97112408432E+01  2.44098025112E+02  1.60060443142E+02  7.2867E-13  9.0
 -3000025    2    1    2    0    0  6.31492266581E+01 -1.53697084098E+02  8.70006597312E+01  2.46522060584E+02  1.59979352021E+02  9.1009E-13  9.0
        4    1    3    3  500    0 -1.84473732641E+01  1.27225202966E+02 -3.69379315719E+01  1.33765182940E+02  1.46817165330E+00  0.0000E+00  9.0
       -3    1    3    3    0  500 -3.58816693715E+01  8.44309008942E+00 -2.52571159831E+01  4.46849177568E+01  2.00000000000E-01  0.0000E+00  9.0
  3000022    1    3    3    0    0 -8.82018402331E+00  1.80287910410E+01 -1.75161932881E+01  6.56479244143E+01  6.00000000000E+01  0.0000E+00  9.0
       -2    1    4    4    0  504  1.26043030167E+01 -8.90348977397E-01  5.22146323487E+01  5.37217741344E+01  3.00000000000E-03  0.0000E+00  9.0
        1    1    4    4  504    0 -1.26197975300E+01 -6.23193836410E+01  5.49861149635E+00  6.38216234554E+01  5.00000000000E-03  0.0000E+00  9.0
  3000022    1    4    4    0    0  6.31647211718E+01 -9.04873514793E+01  2.92874158862E+01  1.28978662994E+02  6.00000000000E+01  0.0000E+00  9.0
</event>
<event>
10    1   3.4312288E-02   4.7300000E+02  -1.0000000E+00   9.4110000E-02
       11   -1    0    0    0    0  0.00000000000E+00  0.00000000000E+00  2.24664417050E+02  2.24664417050E+02  0.00000000000E+00  0.0000E+00  9.0
      -11   -1    0    0    0    0  0.00000000000E+00  0.00000000000E+00 -2.49010173620E+02  2.49010173620E+02  0.00000000000E+00  0.0000E+00  9.0
  3000025    2    1    2    0    0  1.87858838038E+01 -1.67549677258E+02  3.17020969012E+01  2.34539479977E+02  1.59931050582E+02  5.1759E-13  9.0
 -3000025    2    1    2    0    0 -1.87858838038E+01  1.67549677258E+02 -5.60478534692E+01  2.39135110690E+02  1.60057600590E+02  3.9245E-12  9.0
        2    1    3    3  500    0  2.16415613087E+01 -5.52168179138E+01  3.65475748953E+01  6.96633289194E+01  3.00000000000E-03  0.0000E+00  9.0
       -1    1    3    3    0  500 -1.86027823346E+01 -8.71430827939E+01 -2.89905490133E+01  9.37039612103E+01  5.00000000000E-03  0.0000E+00  9.0
  3000022    1    3    3    0    0  1.57471048298E+01 -2.51897765505E+01  2.41450710182E+01  7.11721898473E+01  6.00000000000E+01  0.0000E+00  9.0
      -14    1    4    4    0    0 -1.83767399072E+00 -1.10517461688E+01 -1.72049650787E+01  2.05311705082E+01  0.00000000000E+00  0.0000E+00  9.0
       13    1    4    4    0    0 -4.33807982047E+01  3.06632102305E+01 -5.69973468838E+00  5.34286838928E+01  1.05700000000E-01  0.0000E+00  9.0
  3000022    1    4    4    0    0  2.64325883909E+01  1.47938213197E+02 -3.31431537022E+01  1.65175256289E+02  6.00000000000E+01  0.0000E+00  9.0
</event>
<event>
10    1   3.4312288E-02   4.9880000E+02  -1.0000000E+00   9.3520000E-02
       11   -1    0    0    0    0  0.00000000000E+00  0.00000000000E+00  2.48809788800E+02  2.48809788800E+02  0.00000000000E+00  0.0000E+00  9.0
      -11   -1    0    0    0    0  0.00000000000E+00  0.00000000000E+00 -2.50000000000E+02  2.50000000000E+02  0.00000000000E+00  0.0000E+00  9.0
  3000025    2    1    2    0    0  1.53642895075E+02  1.07932543093E+02 -3.84825292379E+01  2.49584448398E+02  1.59862186774E+02  4.7770E-13  9.0
 -3000025    2    1    2    0    0 -1.53642895075E+02 -1.07932543093E+02  3.72923180359E+01  2.49225340402E+02  1.59583771883E+02  2.5141E-13  9.0
        4    1    3    3  500    0  3.95784394257E+00  6.61492036071E+01 -1.93532729758E+01  6.90513314094E+01  1.46817165330E+00  0.0000E+00  9.0
       -3    1    3    3    0  500  4.94364051851E+01  4.57592721137E+00  1.73748351302E+01  5.26005909023E+01  2.00000000000E-01  0.0000E+00  9.0
  3000022    1    3    3    0    0  1.00248645948E+02  3.72074122745E+01 -3.65040913926E+01  1.27932526087E+02  6.00000000000E+01  0.0000E+00  9.0
       -2    1    4    4    0  504 -1.18127556502E+01 -6.58932427987E+01  1.27850294038E+01  6.81536325403E+01  3.00000000000E-03  0.0000E+00  9.0
        1    1    4    4  504    0 -3.11960886305E+01  1.52920254992E+01  2.49470042743E+01  4.27714278108E+01  5.00000000000E-03  0.0000E+00  9.0
  3000022    1    4    4    0    0 -1.10634050794E+02 -5.73313257932E+01 -4.39715642030E-01  1.38300280051E+02  6.00000000000E+01  0.0000E+00  9.0
</event>
<event>
10    1   3.4312288E-02   4.9630000E+02  -1.0000000E+00   9.3570000E-02
       11   -1    0    0    0    0  0.00000000000E+00  0.00000000000E+00  2.49999833220E+02  2.49999833220E+02  0.00000000000E+00  0.0000E+00  9.0
      -11   -1    0    0    0    0  0.00000000000E+00  0.00000000000E+00 -2.46344088630E+02  2.46344088630E+02  0.00000000000E+00  0.0000E+00  9.0
  3000025    2    1    2    0    0  3.14874965018E+01 -1.56833775429E+02 -1.00310513692E+02  2.47404603273E+02  1.59870394421E+02  5.3007E-13  9.0
 -3000025    2    1    2    0    0 -3.14874965018E+01  1.56833775429E+02  1.03966258282E+02  2.48939318580E+02  1.59917184577E+02  1.1782E-12  9.0
        2    1    3    3  500    0  3.08524884197E+00 -1.19524600799E+02 -4.40996669820E+01  1.27437944088E+02  3.00000000000E-03  0.0000E+00  9.0
       -1    1    3    3    0  500  3.75438657643E+01 -1.69926080547E+01 -1.50573375946E+01  4.38749817717E+01  5.00000000000E-03  0.0000E+00  9.0
  3000022    1    3    3    0    0 -9.14161810460E+00 -2.03165665738E+01 -4.11535091147E+01  7.60916774120E+01  6.00000000000E+01  0.0000E+00  9.0
       -4    1    4    4    0  504 -1.27556418074E+00 -1.26348106943E+01  2.87887524175E+01  3.14994174393E+01  1.46817165330E+00  0.0000E+00  9.0
        3    1    4    4  504    0 -3.31863027292E+01  5.32457236001E+01 -6.70443130329E+00  6.30985512483E+01  2.00000000000E-01  0.0000E+00  9.0
  3000022    1    4    4    0    0  2.97437040829E+00  1.16222862523E+02  8.18819371676E+01  1.54341349893E+02  6.00000000000E+01  0.0000E+00  9.0
</event>
<event>
10    1   3.4312288E-02   4.9920000E+02  -1.0000000E+00   9.3510000E-02
       11   -1    0    0    0    0  0.00000000000E+00  0.00000000000E+00  2.49266162490E+02  2.49266162490E+02  0.00000000000E+00  0.0000E+00  9.0
      -11   -1    0    0    0    0  0.00000000000E+00  0.00000000000E+00 -2.49896116330E+02  2.49896116330E+02  0.00000000000E+00  0.0000E+00  9.0
  3000025    2    1    2    0    0  1.50511749131E+02  1.15814299287E+02 -2.52330618113E+01  2.49613017720E+02  1.60010039250E+02  1.6549E-13  9.0
 -3000025    2    1    2    0    0 -1.50511749131E+02 -1.15814299287E+02  2.46031079723E+01  2.49549261099E+02  1.60008694287E+02  4.3072E-12  9.0
        2    1    3    3  500    0  3.75856669614E+01  5.38514368772E+01  3.35528477211E+01  7.37458691309E+01  3.00000000000E-03  0.0000E+00  9.0
       -1    1    3    3    0  500  3.79049083927E+00  1.80920452174E+01 -3.79208625273E+01  4.21862745542E+01  5.00000000000E-03  0.0000E+00  9.0
  3000022    1    3    3    0    0  1.09135591330E+02  4.38708171928E+01 -2.08650470050E+01  1.33680874034E+02  6.00000000000E+01  0.0000E+00  9.0
       -4    1    4    4    0  504 -3.26478458105E+01 -2.91467154162E+01 -3.37656454281E+01  5.52963578800E+01  1.46817165330E+00  0.0000E+00  9.0
        3    1    4    4  504    0 -6.01561887033E+01 -8.05802762723E+01  4.30637212410E+01  1.09391371006E+02  2.00000000000E-01  0.0000E+00  9.0
  3000022    1    4    4    0    0 -5.77077146170E+01 -6.08730759864E+00  1.53050321598E+01  8.48615322130E+01  6.00000000000E+01  0.0000E+00  9.0
</event>
<event>
10    1   3.4312288E-02   4.8340000E+02  -1.0000000E+00   9.3870000E-02
       11   -1    0    0    0    0  0.00000000000E+00  0.00000000000E+00  2.42113739720E+02  2.42113739720E+02  0.00000000000E+00  0.0000E+00  9.0
      -11   -1    0    0    0    0  0.00000000000E+00  0.00000000000E+00 -2.41252481020E+02  2.41252481020E+02  0.00000000000E+00  0.0000E+00  9.0
  3000025    2    1    2    0    0 -1.68376915527E+02  6.18256573644E+01  2.65371064099E+01  2.41786237344E+02  1.59947394357E+02  1.5776E-13  9.0
 -3000025    2    1    2    0    0  1.68376915527E+02 -6.18256573644E+01 -2.56758477069E+01  2.41579983387E+02  1.59776223597E+02  6.3897E-13  9.0
        4    1    3    3  500    0 -3.66092604319E+01  3.97742744927E+00 -1.54310592233E+01  3.99541111181E+01  1.46817165330E+00  0.0000E+00  9.0
       -3    1    3    3    0  500 -1.04869533949E+02  2.91655038623E+01  6.46417549968E+01  1.26597165274E+02  2.00000000000E-01  0.0000E+00  9.0
  3000022    1    3    3    0    0 -2.68981211471E+01  2.86827260530E+01 -2.26735893634E+01  7.52349609537E+01  6.00000000000E+01  0.0000E+00  9.0
      -14    1    4    4    0    0 -5.54833834606E-01 -2.15455502630E+01 -3.04553405955E+01  3.73101373290E+01  0.00000000000E+00  0.0000E+00  9.0
       13    1    4    4    0    0  8.63672606368E+01  1.26790938863E+01 -1.18312210930E+01  8.80911578805E+01  1.05700000000E-01  0.0000E+00  9.0
  3000022    1    4    4    0    0  8.25644887246E+01 -5.29592009873E+01  1.66107139825E+01  1.16178688177E+02  6.00000000000E+01  0.0000E+00  9.0
</event>
<event>
10    1   3.4312288E-02   4.7660000E+02  -1.0000000E+00   9.4020000E-02
       11   -1    0    0    0    0  0.00000000000E+00  0.00000000000E+00  2.27362130330E+02  2.27362130330E+02  0.00000000000E+00  0.0000E+00  9.0
      -11   -1    0    0    0    0  0.00000000000E+00  0.00000000000E+00 -2.49733971660E+02  2.49733971660E+02  0.00000000000E+00  0.0000E+00  9.0
  3000025    2    1    2    0    0  1.66163210396E+02  1.54597060181E+01  4.65469853984E+01  2.35821212374E+02  1.59986897453E+02  4.6076E-12  9.0
 -3000025    2    1    2    0    0 -1.66163210396E+02 -1.54597060181E+01 -6.89188267244E+01  2.41274889614E+02  1.60045470669E+02  2.7769E-12  9.0
        2    1    3    3  500    0  8.28032702750E+01  4.35119906298E+01  1.03537252976E+01  9.41109692509E+01  3.00000000000E-03  0.0000E+00  9.0
       -1    1    3    3    0  500  6.05784112579E+01 -3.66705679581E+01  8.64567850508E+00  7.13387850101E+01  5.00000000000E-03  0.0000E+00  9.0
  3000022    1    3    3    0    0  2.27815288636E+01  8.61828334596E+00  2.75475815963E+01  7.03714581133E+01  6.00000000000E+01  0.0000E+00  9.0
       -4    1    4    4    0  504  1.98765270180E+01 -4.75703449641E+00 -2.17071025004E+00  2.06051744591E+01  1.46817165330E+00  0.0000E+00  9.0
        3    1    4    4  504    0 -7.54705269420E+01  1.73003540067E+01 -4.53581346827E+00  7.75610487904E+01  2.00000000000E-01  0.0000E+00  9.0
  3000022    1    4    4    0    0 -1.10569210473E+02 -2.80030255283E+01 -6.22123030071E+01  1.43108666365E+02  6.00000000000E+01  0.0000E+00  9.0
</event>
<event>
10    1   3.4312288E-02   5.0000000E+02  -1.0000000E+00   9.3490000E-02
       11   -1    0    0    0    0  0.00000000000E+00  0.00000000000E+00  2.49980220190E+02  2.49980220190E+02  0.00000000000E+00  0.0000E+00  9.0
      -11   -1    0    0    0    0  0.00000000000E+00  0.00000000000E+00 -2.49972992850E+02  2.49972992850E+02  0.00000000000E+00  0.0000E+00  9.0
  3000025    2    1    2    0    0  6.66165522112E+01 -1.34903177036E+02  1.19203373680E+02  2.49679579285E+02  1.59667829610E+02  1.5507E-12  9.0
 -3000025    2    1    2    0    0 -6.66165522112E+01  1.34903177036E+02 -1.19196146340E+02  2.50273633766E+02  1.60600554960E+02  6.5310E-14  9.0
        4    1    3    3  500    0  3.62119188371E+01 -5.42159989721E+01  2.23713422030E+01  6.89442534979E+01  1.46817165330E+00  0.0000E+00  9.0
       -3    1    3    3    0  500 -3.30028648594E+01 -4.93487036118E+01  4.49107958442E+01  7.44412736354E+01  2.00000000000E-01  0.0000E+00  9.0
  3000022    1    3    3    0    0  6.34074982335E+01 -3.13384744525E+01  5.19212356327E+01  1.06294052152E+02  6.00000000000E+01  0.0000E+00  9.0
       -2    1    4    4    0  504 -5.51483490434E+01  7.05489143472E+01 -4.13427692924E+01  9.86291757014E+01  3.00000000000E-03  0.0000E+00  9.0
        1    1    4    4  504    0  2.70708622311E+01  5.01624909630E+01 -2.81740792734E+01  6.35836916941E+01  5.00000000000E-03  0.0000E+00  9.0
  3000022    1    4    4    0    0 -3.85390653991E+01  1.41917717271E+01 -4.96792977742E+01  8.80607663714E+01  6.00000000000E+01  0.0000E+00  9.0
</event>
<event>
10    1   3.4312288E-02   4.4820000E+02  -1.0000000E+00   9.4720000E-02
       11   -1    0    0    0    0  0.00000000000E+00  0.00000000000E+00  2.11950212730E+02  2.11950212730E+02  0.00000000000E+00  0.0000E+00  9.0
      -11   -1    0    0    0    0  0.00000000000E+00  0.00000000000E+00 -2.36934675530E+02  2.36934675530E+02  0.00000000000E+00  0.0000E+00  9.0
  3000025    2    1    2    0    0 -1.33419033724E+02  5.45252138676E+01  5.03796753054E+01  2.20839286055E+02  1.59556388384E+02  4.1758E-13  9.0
 -3000025    2    1    2    0    0  1.33419033724E+02 -5.45252138677E+01 -7.53641381094E+01  2.28045602209E+02  1.59848071200E+02  8.0344E-13  9.0
        4    1    3    3  500    0 -6.04820316303E+01  5.36345007542E+01  5.62271252821E+01  9.84803582791E+01  1.46817165330E+00  0.0000E+00  9.0
       -3    1    3    3    0  500 -4.04107265164E+01 -2.54105986139E+01  6.51773132122E+00  4.81793125840E+01  2.00000000000E-01  0.0000E+00  9.0
  3000022    1    3    3    0    0 -3.25262755785E+01  2.63013117278E+01 -1.23651812978E+01  7.41796151927E+01  6.00000000000E+01  0.0000E+00  9.0
       -2    1    4    4    0  504  9.09025677918E+00 -1.50281691066E+01 -7.25407458605E+01  7.46367098284E+01  3.00000000000E-03  0.0000E+00  9.0
        1    1    4    4  504    0  2.44349609269E+01 -1.35588874295E+01  1.65340481688E+01  3.24697631294E+01  5.00000000000E-03  0.0000E+00  9.0
  3000022    1    4    4    0    0  9.98938160179E+01 -2.59381573315E+01 -1.93574404176E+01  1.20939129251E+02  6.00000000000E+01  0.0000E+00  9.0
</event>
<event>
10    1   3.4312288E-02   4.9850000E+02  -1.0000000E+00   9.3520000E-02
       11   -1    0    0    0    0  0.00000000000E+00  0.00000000000E+00  2.49837093900E+02  2.49837093900E+02  0.00000000000E+00  0.0000E+00  9.0
      -11   -1    0    0    0    0  0.00000000000E+00  0.00000000000E+00 -2.48681575610E+02  2.48681575610E+02  0.00000000000E+00  0.0000E+00  9.0
  3000025    2    1    2    0    0 -1.52038880666E+02 -6.71707928755E+01 -9.36064792362E+01  2.49134935160E+02  1.60244520382E+02  1.2915E-12  9.0
 -3000025    2    1    2    0    0  1.52038880666E+02  6.71707928755E+01  9.47619975272E+01  2.49383734343E+02  1.59952099486E+02  4.8444E-13  9.0
       14    1    3    3    0    0 -2.52178362061E+01  1.67767449307E+01 -5.77153278321E+01  6.51801925446E+01  0.00000000000E+00  0.0000E+00  9.0
      -13    1    3    3    0    0 -8.29475010490E+01 -4.53270662079E+01 -3.30729999163E+01  1.00143224220E+02  1.05700000000E-01  0.0000E+00  9.0
  3000022    1    3    3    0    0 -4.38735434126E+01 -3.86204715984E+01 -2.81815148773E+00  8.38115183961E+01  6.00000000000E+01  0.0000E+00  9.0
       -4    1    4    4    0  500  8.63292065654E+01  4.85506289679E+01  6.16234984092E+01  1.16659789832E+02  1.46817165330E+00  0.0000E+00  9.0
        3    1    4    4  500    0  2.33807447272E+01  2.29744722859E+01 -2.31248036376E+01  4.01158590098E+01  2.00000000000E-01  0.0000E+00  9.0
  3000022    1    4    4    0    0  4.23289293741E+01 -4.35430837796E+00  5.62633027557E+01  9.26080855022E+01  6.00000000000E+01  0.0000E+00  9.0
</event>
<event>
10    1   3.4312288E-02   5.0000000E+02  -1.0000000E+00   9.3490000E-02
       11   -1    0    0    0    0  0.00000000000E+00  0.00000000000E+00  2.49999999650E+02  2.49999999650E+02  0.00000000000E+00  0.0000E+00  9.0
      -11   -1    0    0    0    0  0.00000000000E+00  0.00000000000E+00 -2.49999720330E+02  2.49999720330E+02  0.00000000000E+00  0.0000E+00  9.0
  3000025    2    1    2    0    0 -1.00006080089E+02  1.63265753268E+02  1.76519092913E+01  2.49870464367E+02  1.59583009173E+02  9.6130E-13  9.0
 -3000025    2    1    2    0    0  1.00006080089E+02 -1.63265753268E+02 -1.76516299753E+01  2.50129255612E+02  1.59987944006E+02  1.7669E-12  9.0
        4    1    3    3  500    0 -6.02229690700E+01  2.88655788276E+01 -3.62913817970E+01  7.60213625595E+01  1.46817165330E+00  0.0000E+00  9.0
       -3    1    3    3    0  500  8.30028677378E+00  1.76369576374E+01  2.39177702637E+01  3.08554171843E+01  2.00000000000E-01  0.0000E+00  9.0
  3000022    1    3    3    0    0 -4.80833977925E+01  1.16763216802E+02  3.00255208236E+01  1.42993684623E+02  6.00000000000E+01  0.0000E+00  9.0
       -2    1    4    4    0  504  2.94453113729E+01 -9.80437873409E+01  2.71667236512E+01  1.05913367810E+02  3.00000000000E-03  0.0000E+00  9.0
        1    1    4    4  504    0  4.94884892250E+01 -6.27182327967E+00 -1.06168799428E+01  5.10016126974E+01  5.00000000000E-03  0.0000E+00  9.0
  3000022    1    4    4    0    0  2.10722794913E+01 -5.89501426472E+01 -3.42014736832E+01  9.32142751041E+01  6.00000000000E+01  0.0000E+00  9.0
</event>
<event>
10    1   3.4312288E-02   4.9990000E+02  -1.0000000E+00   9.3490000E-02
       11   -1    0    0    0    0  0.00000000000E+00  0.00000000000E+00  2.49931990520E+02  2.49931990520E+02  0.00000000000E+00  0.0000E+00  9.0
      -11   -1    0    0    0    0  0.00000000000E+00  0.00000000000E+00 -2.50000000000E+02  2.50000000000E+02  0.00000000000E+00  0.0000E+00  9.0
  3000025    2    1    2    0    0 -1.71269013201E+02  7.53786104306E+01  4.37066263122E+01  2.49930728602E+02  1.59812671971E+02  1.5650E-12  9.0
 -3000025    2    1    2    0    0  1.71269013201E+02 -7.53786104306E+01 -4.37746357962E+01  2.50001261908E+02  1.59904353985E+02  1.4608E-12  9.0
        2    1    3    3  500    0  2.16679562820E+00  3.52915993588E+01  7.28790533974E-01  3.53655642291E+01  3.00000000000E-03  0.0000E+00  9.0
       -1    1    3    3    0  500 -6.53632632146E+01 -1.89590313063E+00  5.22333575932E+01  8.36915425667E+01  5.00000000000E-03  0.0000E+00  9.0
  3000022    1    3    3    0    0 -1.08072545614E+02  4.19829142026E+01 -9.25552181541E+00  1.30873621806E+02  6.00000000000E+01  0.0000E+00  9.0
       -4    1    4    4    0  504  6.45003753738E+01  1.82659864923E+01 -2.54108132917E+01  7.17064128656E+01  1.46817165330E+00  0.0000E+00  9.0
        3    1    4    4  504    0 -9.85699556017E+00 -2.23527497690E+01  9.90734189501E+00  2.63628755475E+01  2.00000000000E-01  0.0000E+00  9.0
  3000022    1    4    4    0    0  1.16625633387E+02 -7.12918471537E+01 -2.82711643993E+01  1.51931973495E+02  6.00000000000E+01  0.0000E+00  9.0
</event>
<event>
10    1   3.4312288E-02   4.8220000E+02  -1.0000000E+00   9.3890000E-02
       11   -1    0    0    0    0  0.00000000000E+00  0.00000000000E+00  2.32543986110E+02  2.32543986110E+02  0.00000000000E+00  0.0000E+00  9.0
      -11   -1    0    0    0    0  0.00000000000E+00  0.00000000000E+00 -2.50000000000E+02  2.50000000000E+02  0.00000000000E+00  0.0000E+00  9.0
  3000025    2    1    2    0    0 -3.47713468145E+01 -1.54206268489E+02  7.88907066566E+01  2.38370176989E+02  1.60024928934E+02  6.9271E-13  9.0
 -3000025    2    1    2    0    0  3.47713468145E+01  1.54206268489E+02 -9.63467205466E+01  2.44173809118E+02  1.59215384616E+02  1.0857E-12  9.0
        4    1    3    3  500    0  2.67434608112E+01 -6.70527743989E+00 -4.74299329299E+00  2.80147274676E+01  1.46817165330E+00  0.0000E+00  9.0
       -3    1    3    3    0  500 -1.47878690817E+01 -1.04659796444E+02  4.76495397174E+01  1.15943402999E+02  2.00000000000E-01  0.0000E+00  9.0
  3000022    1    3    3    0    0 -4.67269385438E+01 -4.28411946050E+01  3.59841602321E+01  9.44120465219E+01  6.00000000000E+01  0.0000E+00  9.0
       -4    1    4    4    0  504  1.12633335731E+01 -1.60036564082E+01 -4.02442218429E+00  2.00332524452E+01  1.46817165330E+00  0.0000E+00  9.0
        3    1    4    4  504    0  2.48186845891E+01  7.90960541759E+01 -7.84947029282E+01  1.14164842569E+02  2.00000000000E-01  0.0000E+00  9.0
  3000022    1    4    4    0    0 -1.31067134768E+00  9.11138707230E+01 -1.38275954355E+01  1.09975714106E+02  6.00000000000E+01  0.0000E+00  9.0
</event>
<event>
10    1   3.4312288E-02   4.9870000E+02  -1.0000000E+00   9.3520000E-02
       11   -1    0    0    0    0  0.00000000000E+00  0.00000000000E+00  2.48734026930E+02  2.48734026930E+02  0.00000000000E+00  0.0000E+00  9.0
      -11   -1    0    0    0    0  0.00000000000E+00  0.00000000000E+00 -2.50000000000E+02  2.50000000000E+02  0.00000000000E+00  0.0000E+00  9.0
  3000025    2    1    2    0    0 -1.23105904232E+02  1.29426091372E+02  6.61437415942E+01  2.49648607710E+02  1.61379230370E+02  2.3965E-14  9.0
 -3000025    2    1    2    0    0  1.23105904232E+02 -1.29426091372E+02 -6.74097146582E+01  2.49085419222E+02  1.59979060049E+02  6.8147E-13  9.0
        4    1    3    3  500    0 -8.61426589814E+01  3.02300269959E+01  3.30750558657E+01  9.71109009178E+01  1.46817165330E+00  0.0000E+00  9.0
       -3    1    3    3    0  500 -2.39477647216E+01  7.39904094077E+01 -1.33794229087E+00  7.77811430171E+01  2.00000000000E-01  0.0000E+00  9.0
  3000022    1    3    3    0    0 -1.30154805288E+01  2.52056549687E+01  3.44066280196E+01  7.47565637752E+01  6.00000000000E+01  0.0000E+00  9.0
       -2    1    4    4    0  504 -1.44249828056E+01 -5.06062248154E+00 -4.64075870611E+00  1.59758154475E+01  3.00000000000E-03  0.0000E+00  9.0
        1    1    4    4  504    0  1.08645686399E+02 -7.46643479707E+01 -7.07851542463E+01  1.49630171148E+02  5.00000000000E-03  0.0000E+00  9.0
  3000022    1    4    4    0    0  2.88852006370E+01 -4.97011209198E+01  8.01619829389E+00  8.34794326263E+01  6.00000000000E+01  0.0000E+00  9.0
</event>
<event>
10    1   3.4312288E-02   4.4920000E+02  -1.0000000E+00   9.4690000E-02
       11   -1    0    0    0    0  0.00000000000E+00  0.00000000000E+00  2.01823977160E+02  2.01823977160E+02  0.00000000000E+00  0.0000E+00  9.0
      -11   -1    0    0    0    0  0.00000000000E+00  0.00000000000E+00 -2.49999999940E+02  2.49999999940E+02  0.00000000000E+00  0.0000E+00  9.0
  3000025    2    1    2    0    0 -4.88245257775E+01 -1.17119821578E+02 -1.18274797329E+02  2.36092269830E+02  1.60155378512E+02  5.3488E-13  9.0
 -3000025    2    1    2    0    0  4.88245257775E+01  1.17119821578E+02  7.00987745618E+01  2.15731707267E+02  1.59766843874E+02  1.2680E-12  9.0
        4    1    3    3  500    0 -3.36035103892E-01 -6.82716104657E+01 -2.67783159046E+01  7.33509335037E+01  1.46817165330E+00  0.0000E+00  9.0
       -3    1    3    3    0  500  9.10766989013E+00  2.29579326085E+01 -1.61747357206E+01  2.95242001774E+01  2.00000000000E-01  0.0000E+00  9.0
  3000022    1    3    3    0    0 -5.75961605649E+01 -7.18061437219E+01 -7.53217457035E+01  1.33217136149E+02  6.00000000000E+01  0.0000E+00  9.0
      -14    1    4    4    0    0  5.63304724804E+01  5.65588940126E+01 -1.61878387652E+01  8.14498419009E+01  0.00000000000E+00  0.0000E+00  9.0
       13    1    4    4    0    0  6.07711830672E+00  3.12050385263E+01  4.32195743856E+01  5.36528524769E+01  1.05700000000E-01  0.0000E+00  9.0
  3000022    1    4    4    0    0 -1.35830650096E+01  2.93558890389E+01  4.30670389403E+01  8.06290128887E+01  6.00000000000E+01  0.0000E+00  9.0
</event>
<event>
10    1   3.4312288E-02   4.9280000E+02  -1.0000000E+00   9.3650000E-02
       11   -1    0    0    0    0  0.00000000000E+00  0.00000000000E+00  2.50000000000E+02  2.50000000000E+02  0.00000000000E+00  0.0000E+00  9.0
      -11   -1    0    0    0    0  0.00000000000E+00  0.00000000000E+00 -2.42849127390E+02  2.42849127390E+02  0.00000000000E+00  0.0000E+00  9.0
  3000025    2    1    2    0    0  5.31501166661E+00  1.45524861557E+02 -1.14437125994E+02  2.44697471919E+02  1.59922675934E+02  1.1437E-12  9.0
 -3000025    2    1    2    0    0 -5.31501166661E+00 -1.45524861557E+02  1.21587998604E+02  2.48151655469E+02  1.59968334451E+02  1.5227E-12  9.0
        4    1    3    3  500    0 -1.31907654498E+01  8.79019201958E+01 -4.21598783968E+01  9.83887937810E+01  1.46817165330E+00  0.0000E+00  9.0
       -3    1    3    3    0  500 -2.03452242127E+01 -1.46759600711E+01 -9.53089627939E+00  2.68363547480E+01  2.00000000000E-01  0.0000E+00  9.0
  3000022    1    3    3    0    0  3.88510013290E+01  7.22989014319E+01 -6.27463513175E+01  1.19472323390E+02  6.00000000000E+01  0.0000E+00  9.0
       -2    1    4    4    0  504 -2.41950928600E+01 -4.78795606106E+01  1.73976785517E+01  5.63962239051E+01  3.00000000000E-03  0.0000E+00  9.0
        1    1    4    4  504    0  5.46652136878E+01 -3.40012189602E+01  2.73149867260E+01  6.99319455124E+01  5.00000000000E-03  0.0000E+00  9.0
  3000022    1    4    4    0    0 -3.57851324954E+01 -6.36440819866E+01  7.68753333269E+01  1.21823486052E+02  6.00000000000E+01  0.0000E+00  9.0
</event>
<event>
10    1   3.4312288E-02   4.8380000E+02  -1.0000000E+00   9.3860000E-02
       11   -1    0    0    0    0  0.00000000000E+00  0.00000000000E+00  2.35778918650E+02  2.35778918650E+02  0.00000000000E+00  0.0000E+00  9.0
      -11   -1    0    0    0    0  0.00000000000E+00  0.00000000000E+00 -2.48182466730E+02  2.48182466730E+02  0.00000000000E+00  0.0000E+00  9.0
  3000025    2    1    2    0    0  4.19432054833E+00 -1.81439077639E+02 -1.11132781563E+01  2.42217629789E+02  1.60025448007E+02  1.5718E-12  9.0
 -3000025    2    1    2    0    0 -4.19432054833E+00  1.81439077639E+02 -1.29026992819E+00  2.41743755597E+02  1.59689221160E+02  1.6285E-12  9.0
        2    1    3    3  500    0 -3.46566598472E+01 -1.07435158078E+02 -1.03396079250E+01  1.13359184736E+02  3.00000000000E-03  0.0000E+00  9.0
       -1    1    3    3    0  500  1.13970838086E+01  4.31573281877E+00 -2.11798763089E+01  2.44357577039E+01  5.00000000000E-03  0.0000E+00  9.0
  3000022    1    3    3    0    0  2.74538965869E+01 -7.83196523800E+01  2.04062060777E+01  1.04422687349E+02  6.00000000000E+01  0.0000E+00  9.0
       -4    1    4    4    0  504  2.22241881548E+01  4.51551748511E+01 -3.99246080441E+01  6.42575615040E+01  1.46817165330E+00  0.0000E+00  9.0
        3    1    4    4  504    0 -2.23641588823E+01  1.00354924474E+02  1.73394989651E+01  1.04268713875E+02  2.00000000000E-01  0.0000E+00  9.0
  3000022    1    4    4    0    0 -4.05434982137E+00  3.59289783130E+01  2.12948391498E+01  7.32174802182E+01  6.00000000000E+01  0.0000E+00  9.0
</event>
<event>
10    1   3.4312288E-02   4.9320000E+02  -1.0000000E+00   9.3640000E-02
       11   -1    0    0    0    0  0.00000000000E+00  0.00000000000E+00  2.43226861800E+02  2.43226861800E+02  0.00000000000E+00  0.0000E+00  9.0
      -11   -1    0    0    0    0  0.00000000000E+00  0.00000000000E+00 -2.50000000000E+02  2.50000000000E+02  0.00000000000E+00  0.0000E+00  9.0
  3000025    2    1    2    0    0  1.86787121229E+02  1.68481739062E+01 -7.67889805629E+00  2.46723204237E+02  1.60125214793E+02  4.7601E-12  9.0
 -3000025    2    1    2    0    0 -1.86787121229E+02 -1.68481739062E+01  9.05759856863E-01  2.46503657566E+02  1.59968569325E+02  1.4012E-12  9.0
        2    1    3    3  500    0  1.39254322399E+02  1.87372519407E+01 -1.22639438587E+01  1.41043451620E+02  3.00000000000E-03  0.0000E+00  9.0
       -1    1    3    3    0  500  6.64258594376E-01  2.23138569805E+01  1.21783027981E+01  2.54295209721E+01  5.00000000000E-03  0.0000E+00  9.0
  3000022    1    3    3    0    0  4.68685402360E+01 -2.42029350151E+01 -7.59325699526E+00  8.02502316445E+01  6.00000000000E+01  0.0000E+00  9.0
       -2    1    4    4    0  504 -1.18258194035E+01 -8.25422240146E+00 -3.59160897637E+01  3.87033293778E+01  3.00000000000E-03  0.0000E+00  9.0
        1    1    4    4  504    0 -5.38131306049E+01  1.56690665087E+01  4.24870863740E+01  7.03315377644E+01  5.00000000000E-03  0.0000E+00  9.0
  3000022    1    4    4    0    0 -1.21148171221E+02 -2.42630180137E+01 -5.66523675342E+00  1.37468790425E+02  6.00000000000E+01  0.0000E+00  9.0
</event>
<event>
10    1   3.4312288E-02   4.8670000E+02  -1.0000000E+00   9.3790000E-02
       11   -1    0    0    0    0  0.00000000000E+00  0.00000000000E+00  2.37023450280E+02  2.37023450280E+02  0.00000000000E+00  0.0000E+00  9.0
      -11   -1    0    0    0    0  0.00000000000E+00  0.00000000000E+00 -2.49794190900E+02  2.49794190900E+02  0.00000000000E+00  0.0000E+00  9.0
  3000025    2    1    2    0    0 -5.86838264554E+01 -1.04123051057E+02  1.32636625129E+02  2.39738307066E+02  1.59989313082E+02  1.4668E-13  9.0
 -3000025    2    1    2    0    0  5.86838264554E+01  1.04123051057E+02 -1.45407365749E+02  2.47079334125E+02  1.60060907434E+02  1.5517E-12  9.0
        4    1    3    3  500    0 -5.17837903834E+01  7.41374730172E+00  3.74185440126E+01  6.43337202371E+01  1.46817165330E+00  0.0000E+00  9.0
       -3    1    3    3    0  500  2.49117274146E+01 -1.99464759775E+01  3.12475765149E+01  4.46643829550E+01  2.00000000000E-01  0.0000E+00  9.0
  3000022    1    3    3    0    0 -3.18117634874E+01 -9.15903223806E+01  6.39705046017E+01  1.30740203874E+02  6.00000000000E+01  0.0000E+00  9.0
       -2    1    4    4    0  504 -3.24760941167E+00  7.26147549711E+01 -4.58750179765E+01  8.59532831820E+01  3.00000000000E-03  0.0000E+00  9.0
        1    1    4    4  504    0  1.80147086043E+01  7.47477059170E-01 -7.48025916218E+01  7.69448905801E+01  5.00000000000E-03  0.0000E+00  9.0
  3000022    1    4    4    0    0  4.39167272632E+01  3.07608190267E+01 -2.47297561506E+01  8.41811603625E+01  6.00000000000E+01  0.0000E+00  9.0
</event>
<event>
10    1   3.4312288E-02   4.7500000E+02  -1.0000000E+00   9.4060000E-02
       11   -1    0    0    0    0  0.00000000000E+00  0.00000000000E+00  2.49991796820E+02  2.49991796820E+02  0.00000000000E+00  0.0000E+00  9.0
      -11   -1    0    0    0    0  0.00000000000E+00  0.00000000000E+00 -2.25678048690E+02  2.25678048690E+02  0.00000000000E+00  0.0000E+00  9.0
  3000025    2    1    2    0    0 -1.29144061461E+02 -2.48211014839E+01  1.28699000251E+02  2.43839880892E+02  1.60000559868E+02  1.9799E-12  9.0
 -3000025    2    1    2    0    0  1.29144061461E+02  2.48211014839E+01 -1.04385252121E+02  2.31829964617E+02  1.59857986801E+02  2.4260E-14  9.0
        4    1    3    3  500    0 -8.27465429962E+01 -3.42223623633E+00  2.76863581027E+01  8.73349416424E+01  1.46817165330E+00  0.0000E+00  9.0
       -3    1    3    3    0  500 -1.80958620824E+00 -4.17318835615E+01  3.01675277035E+01  5.15261529281E+01  2.00000000000E-01  0.0000E+00  9.0
  3000022    1    3    3    0    0 -4.45879322567E+01  2.03330183143E+01  7.08451144449E+01  1.04978786321E+02  6.00000000000E+01  0.0000E+00  9.0
       -4    1    4    4    0  504 -1.03927050048E+01 -7.27730089650E-01  5.64562873025E+00  1.19401239593E+01  1.46817165330E+00  0.0000E+00  9.0
        3    1    4    4  504    0  1.06570476971E+02 -1.66868482710E+01 -7.88601268167E+01  1.33621394502E+02  2.00000000000E-01  0.0000E+00  9.0
  3000022    1    4    4    0    0  3.29662894945E+01  4.22356798442E+01 -3.11707540347E+01  8.62684461552E+01  6.00000000000E+01  0.0000E+00  9.0
</event>
<event>
10    1   3.4312288E-02   4.7070000E+02  -1.0000000E+00   9.4160000E-02
       11   -1    0    0    0    0  0.00000000000E+00  0.00000000000E+00  2.42099656620E+02  2.42099656620E+02  0.00000000000E+00  0.0000E+00  9.0
      -11   -1    0    0    0    0  0.00000000000E+00  0.00000000000E+00 -2.28779903010E+02  2.28779903010E+02  0.00000000000E+00  0.0000E+00  9.0
  3000025    2    1    2    0    0 -1.01849159863E+02  1.23551483453E+02 -5.78893561007E+01  2.33613495348E+02  1.59955828998E+02  8.2229E-13  9.0
 -3000025    2    1    2    0    0  1.01849159863E+02 -1.23551483453E+02  7.12091097127E+01  2.37266064290E+02  1.59956955239E+02  5.8956E-13  9.0
       14    1    3    3    0    0 -1.63499225954E-01 -1.54281688858E+01 -6.09487343200E+00  1.65892317278E+01  0.00000000000E+00  0.0000E+00  9.0
      -13    1    3    3    0    0 -7.55582061701E+01  9.16858795679E+01  4.00706978037E+00  1.18875610671E+02  1.05700000000E-01  0.0000E+00  9.0
  3000022    1    3    3    0    0 -2.61274544676E+01  4.72937727715E+01 -5.58015524497E+01  9.81486529491E+01  6.00000000000E+01  0.0000E+00  9.0
       -4    1    4    4    0  500  1.40799112776E+01  2.53442695624E+01  9.93787891146E+00  3.06837557430E+01  1.46817165330E+00  0.0000E+00  9.0
        3    1    4    4  500    0  4.72643513079E+01 -6.02143231630E+01  5.02660345485E+01  9.15772780103E+01  2.00000000000E-01  0.0000E+00  9.0
  3000022    1    4    4    0    0  4.05048972776E+01 -8.86814298525E+01  1.10051962526E+01  1.15005030537E+02  6.00000000000E+01  0.0000E+00  9.0
</event>
<event>
10    1   3.4312288E-02   4.9920000E+02  -1.0000000E+00   9.3510000E-02
       11   -1    0    0    0    0  0.00000000000E+00  0.00000000000E+00  2.49638428340E+02  2.49638428340E+02  0.00000000000E+00  0.0000E+00  9.0
      -11   -1    0    0    0    0  0.00000000000E+00  0.00000000000E+00 -2.49539864670E+02  2.49539864670E+02  0.00000000000E+00  0.0000E+00  9.0
  3000025    2    1    2    0    0  6.58389523537E+01 -1.79225274916E+02 -1.54587478282E+01  2.49604902457E+02  1.60022397278E+02  1.4785E-12  9.0
 -3000025    2    1    2    0    0 -6.58389523537E+01  1.79225274916E+02  1.55573114902E+01  2.49573390557E+02  1.59963684997E+02  1.1466E-12  9.0
        4    1    3    3  500    0 -2.24808395937E+01 -2.82430005204E+01  1.19633536482E+01  3.80569650097E+01  1.46817165330E+00  0.0000E+00  9.0
       -3    1    3    3    0  500  1.04094249912E+01 -5.33313603095E+00  2.54662622205E+01  2.80244354102E+01  2.00000000000E-01  0.0000E+00  9.0
  3000022    1    3    3    0    0  7.79103669560E+01 -1.45649138364E+02 -5.28883636980E+01  1.83523502037E+02  6.00000000000E+01  0.0000E+00  9.0
       -4    1    4    4    0  504 -5.14025359339E+01  4.47669593998E+01 -2.17003204920E+01  7.15497085375E+01  1.46817165330E+00  0.0000E+00  9.0
        3    1    4    4  504    0  8.28460868842E+00  1.40553120822E+01  3.82558383595E+01  4.15900914574E+01  2.00000000000E-01  0.0000E+00  9.0
  3000022    1    4    4    0    0 -2.27210251093E+01  1.20403003434E+02 -9.98206376775E-01  1.36433590563E+02  6.00000000000E+01  0.0000E+00  9.0
</event>
<event>
10    1   3.4312288E-02   4.9480000E+02  -1.0000000E+00   9.3610000E-02
       11   -1    0    0    0    0  0.00000000000E+00  0.00000000000E+00  2.44845111030E+02  2.44845111030E+02  0.00000000000E+00  0.0000E+00  9.0
      -11   -1    0    0    0    0  0.00000000000E+00  0.00000000000E+00 -2.49999999970E+02  2.49999999970E+02  0.00000000000E+00  0.0000E+00  9.0
  3000025    2    1    2    0    0  1.08446906359E+02 -1.54245838660E+02  5.22014169980E+00  2.47296204942E+02  1.59923897078E+02  2.0585E-12  9.0
 -3000025    2    1    2    0    0 -1.08446906359E+02  1.54245838660E+02 -1.03750306378E+01  2.47548906064E+02  1.60063454261E+02  2.1030E-12  9.0
        2    1    3    3  500    0  1.10388454569E+02 -8.58241043815E+01 -2.46416243863E+00  1.39847988546E+02  3.00000000000E-03  0.0000E+00  9.0
       -1    1    3    3    0  500 -8.94494395168E+00  3.95078035737E+00  8.82404456170E+00  1.31713505442E+01  5.00000000000E-03  0.0000E+00  9.0
  3000022    1    3    3    0    0  7.00339574258E+00 -7.23725146361E+01 -1.13974042336E+00  9.42768658522E+01  6.00000000000E+01  0.0000E+00  9.0
       -4    1    4    4    0  504 -9.43841005157E+01  4.35653773975E+01 -1.37606523626E+01  1.04870451603E+02  1.46817165330E+00  0.0000E+00  9.0
        3    1    4    4  504    0  1.11182630147E+01  2.17951718837E+01 -1.81127914151E+01  3.04427085318E+01  2.00000000000E-01  0.0000E+00  9.0
  3000022    1    4    4    0    0 -2.51810688575E+01  8.88852893793E+01  2.14984131401E+01  1.12235745930E+02  6.00000000000E+01  0.0000E+00  9.0
</event>
<event>
10    1   3.4312288E-02   4.8850000E+02  -1.0000000E+00   9.3750000E-02
       11   -1    0    0    0    0  0.00000000000E+00  0.00000000000E+00  2.48445795000E+02  2.48445795000E+02  0.00000000000E+00  0.0000E+00  9.0
      -11   -1    0    0    0    0  0.00000000000E+00  0.00000000000E+00 -2.40114843580E+02  2.40114843580E+02  0.00000000000E+00  0.0000E+00  9.0
  3000025    2    1    2    0    0  1.72503836772E+02 -1.04217961234E+01  6.88023671824E+01  2.45392856407E+02  1.60055305161E+02  4.1082E-12  9.0
 -3000025    2    1    2    0    0 -1.72503836772E+02  1.04217961234E+01 -6.04714157634E+01  2.43167782173E+02  1.60023718952E+02  3.2400E-12  9.0
        2    1    3    3  500    0  7.08860844577E+01  3.17526339286E+01 -4.45211288009E+00  7.78003087992E+01  3.00000000000E-03  0.0000E+00  9.0
       -1    1    3    3    0  500  6.90731207625E+01 -4.31043350778E+01  2.99585317302E+01  8.67559413689E+01  5.00000000000E-03  0.0000E+00  9.0
  3000022    1    3    3    0    0  3.25446315516E+01  9.29905026144E-01  4.32959483323E+01  8.08366062386E+01  6.00000000000E+01  0.0000E+00  9.0
       -4    1    4    4    0  504 -2.40419234280E+01  1.95597136149E+01  1.97212743991E+01  3.67652100598E+01  1.46817165330E+00  0.0000E+00  9.0
        3    1    4    4  504    0 -3.09268507274E+01  1.44698148200E+00 -6.64430402653E+01  7.33026701494E+01  2.00000000000E-01  0.0000E+00  9.0
  3000022    1    4    4    0    0 -1.17535062616E+02 -1.05848989734E+01 -1.37496498961E+01  1.33099901963E+02  6.00000000000E+01  0.0000E+00  9.0
</event>
<event>
10    1   3.4312288E-02   4.9990000E+02  -1.0000000E+00   9.3490000E-02
       11   -1    0    0    0    0  0.00000000000E+00  0.00000000000E+00  2.49922111880E+02  2.49922111880E+02  0.00000000000E+00  0.0000E+00  9.0
      -11   -1    0    0    0    0  0.00000000000E+00  0.00000000000E+00 -2.50000000000E+02  2.50000000000E+02  0.00000000000E+00  0.0000E+00  9.0
  3000025    2    1    2    0    0  1.10953346353E+02  1.30176435535E+02 -8.74116305463E+01  2.50040087440E+02  1.60070930330E+02  1.1234E-13  9.0
 -3000025    2    1    2    0    0 -1.10953346353E+02 -1.30176435535E+02  8.73337424283E+01  2.49882024443E+02  1.59866488477E+02  1.1227E-12  9.0
        4    1    3    3  500    0 -1.88342061907E+01  1.32533995286E+01  5.11289269210E+00  2.36363516978E+01  1.46817165330E+00  0.0000E+00  9.0
       -3    1    3    3    0  500  7.39771137068E+01  6.59448086231E+01 -1.03330170274E+01  9.96400641189E+01  2.00000000000E-01  0.0000E+00  9.0
  3000022    1    3    3    0    0  5.58104388355E+01  5.09782273826E+01 -8.21915062097E+01  1.26763671622E+02  6.00000000000E+01  0.0000E+00  9.0
       -2    1    4    4    0  504 -3.19393140911E+01 -1.38232080721E+01  3.99035628870E+01  5.29480425143E+01  3.00000000000E-03  0.0000E+00  9.0
        1    1    4    4  504    0 -8.69137092346E+00 -9.08321118841E+01  3.13872836786E+00  9.13009535471E+01  5.00000000000E-03  0.0000E+00  9.0
  3000022    1    4    4    0    0 -7.03226613382E+01 -2.55211155785E+01  4.42914511732E+01  1.05633028382E+02  6.00000000000E+01  0.0000E+00  9.0
</event>
<event>
10    1   3.4312288E-02   4.8940000E+02  -1.0000000E+00   9.3730000E-02
       11   -1    0    0    0    0  0.00000000000E+00  0.00000000000E+00  2.47924767420E+02  2.47924767420E+02  0.00000000000E+00  0.0000E+00  9.0
      -11   -1    0    0    0    0  0.00000000000E+00  0.00000000000E+00 -2.41539758250E+02  2.41539758250E+02  0.00000000000E+00  0.0000E+00  9.0
  3000025    2    1    2    0    0  1.35407052624E+02  1.18199125409E+02 -4.01134608240E+01  2.44467528033E+02  1.60776799867E+02  2.5863E-12  9.0
 -3000025    2    1    2    0    0 -1.35407052624E+02 -1.18199125409E+02  4.64984700000E+01  2.44996997634E+02  1.59860307737E+02  2.1029E-12  9.0
        4    1    3    3  500    0 -1.86386390345E+01  5.15918267550E+00  1.41411194913E+01  2.40029752200E+01  1.46817165330E+00  0.0000E+00  9.0
       -3    1    3    3    0  500  6.29315799638E+01  7.36401497775E+01 -1.50696404355E+01  9.80325939616E+01  2.00000000000E-01  0.0000E+00  9.0
  3000022    1    3    3    0    0  9.11141116943E+01  3.93997929565E+01 -3.91849398797E+01  1.22431958852E+02  6.00000000000E+01  0.0000E+00  9.0
       -4    1    4    4    0  504  1.89187544691E+01 -4.08072712067E+01 -5.26797805160E+00  4.53107026513E+01  1.46817165330E+00  0.0000E+00  9.0
        3    1    4    4  504    0 -6.83680752087E+01 -4.44795229474E+01  1.01352596489E+01  8.21911501168E+01  2.00000000000E-01  0.0000E+00  9.0
  3000022    1    4    4    0    0 -8.59577318839E+01 -3.29123312554E+01  4.16311884029E+01  1.17495144866E+02  6.00000000000E+01  0.0000E+00  9.0
</event>
<event>
10    1   3.4312288E-02   4.7730000E+02  -1.0000000E+00   9.4010000E-02
       11   -1    0    0    0    0  0.00000000000E+00  0.00000000000E+00  2.27849870600E+02  2.27849870600E+02  0.00000000000E+00  0.0000E+00  9.0
      -11   -1    0    0    0    0  0.00000000000E+00  0.00000000000E+00 -2.49991179160E+02  2.49991179160E+02  0.00000000000E+00  0.0000E+00  9.0
  3000025    2    1    2    0    0  4.09486999563E+01 -1.67944709961E+02 -4.90556026637E+01  2.40641792090E+02  1.60061857778E+02  1.5008E-12  9.0
 -3000025    2    1    2    0    0 -4.09486999563E+01  1.67944709961E+02  2.69142940987E+01  2.37199257662E+02  1.60177673153E+02  1.6124E-12  9.0
        2    1    3    3  500    0  2.00538873349E+01 -6.45265916157E+00 -4.49995817121E+01  4.96865934711E+01  3.00000000000E-03  0.0000E+00  9.0
       -1    1    3    3    0  500  2.85619295923E+01 -5.02194076563E+01  2.16960310257E+01  6.17129687720E+01  5.00000000000E-03  0.0000E+00  9.0
  3000022    1    3    3    0    0 -7.66711697006E+00 -1.11272643143E+02 -2.57520519775E+01  1.29242229847E+02  6.00000000000E+01  0.0000E+00  9.0
       -4    1    4    4    0  504 -6.91744182372E+00  7.78437986437E+01  2.58174314604E+01  8.23176972702E+01  1.46817165330E+00  0.0000E+00  9.0
        3    1    4    4  504    0 -4.63103261714E+01  3.67318970486E+01 -3.19392541191E+01  6.71865650601E+01  2.00000000000E-01  0.0000E+00  9.0
  3000022    1    4    4    0    0  1.22790680390E+01  5.33690142687E+01  3.30361167564E+01  8.76949953319E+01  6.00000000000E+01  0.0000E+00  9.0
</event>
<event>
10    1   3.4312288E-02   5.0000000E+02  -1.0000000E+00   9.3490000E-02
       11   -1    0    0    0    0  0.00000000000E+00  0.00000000000E+00  2.49971565220E+02  2.49971565220E+02  0.00000000000E+00  0.0000E+00  9.0
      -11   -1    0    0    0    0  0.00000000000E+00  0.00000000000E+00 -2.50000000000E+02  2.50000000000E+02  0.00000000000E+00  0.0000E+00  9.0
  3000025    2    1    2    0    0 -1.83569597380E+02 -2.80127643058E+01  4.91545154165E+01  2.50003689965E+02  1.60009895207E+02  3.6757E-14  9.0
 -3000025    2    1    2    0    0  1.83569597380E+02  2.80127643058E+01 -4.91829501955E+01  2.49967875250E+02  1.59945190677E+02  1.6595E-13  9.0
        2    1    3    3  500    0 -3.27748658355E+01 -5.48028079986E+01  3.42307210859E+01  7.24519279946E+01  3.00000000000E-03  0.0000E+00  9.0
       -1    1    3    3    0  500 -1.44046513907E+01  1.65634764276E+01 -1.31400817564E+01  2.55832856885E+01  5.00000000000E-03  0.0000E+00  9.0
  3000022    1    3    3    0    0 -1.36390080156E+02  1.02265672651E+01  2.80638760878E+01  1.51968476284E+02  6.00000000000E+01  0.0000E+00  9.0
      -14    1    4    4    0    0  1.09153089885E+02  6.96218017163E+01 -2.44037292417E+01  1.31746477397E+02  0.00000000000E+00  0.0000E+00  9.0
       13    1    4    4    0    0  2.98381310657E+01 -2.24752382973E+01 -5.89419482901E-01  3.73605271621E+01  1.05700000000E-01  0.0000E+00  9.0
  3000022    1    4    4    0    0  4.45783764306E+01 -1.91337991142E+01 -2.41898014710E+01  8.08608706912E+01  6.00000000000E+01  0.0000E+00  9.0
</event>
<event>
10    1   3.4312288E-02   4.9980000E+02  -1.0000000E+00   9.3500000E-02
       11   -1    0    0    0    0  0.00000000000E+00  0.00000000000E+00  2.49799672630E+02  2.49799672630E+02  0.00000000000E+00  0.0000E+00  9.0
      -11   -1    0    0    0    0  0.00000000000E+00  0.00000000000E+00 -2.49999990900E+02  2.49999990900E+02  0.00000000000E+00  0.0000E+00  9.0
  3000025    2    1    2    0    0 -1.85560391960E+02  4.57388886983E+01 -3.21438428930E+01  2.48502990202E+02  1.55550006427E+02  1.2306E-13  9.0
 -3000025    2    1    2    0    0  1.85560391960E+02 -4.57388886983E+01  3.19435246270E+01  2.51296673319E+02  1.60015387548E+02  3.5494E-14  9.0
        4    1    3    3  500    0 -8.94811456670E+00 -2.45299173989E+01  9.39785382723E+00  2.77895805376E+01  1.46817165330E+00  0.0000E+00  9.0
       -3    1    3    3    0  500 -3.40489205950E+01  3.49579444532E+01 -3.82853432553E+01  6.20257557975E+01  2.00000000000E-01  0.0000E+00  9.0
  3000022    1    3    3    0    0 -1.42563356799E+02  3.53108616439E+01 -3.25635346498E+00  1.58687653866E+02  6.00000000000E+01  0.0000E+00  9.0
       -4    1    4    4    0  504  1.08543133764E+01  2.09839434692E+01 -2.17361453455E+01  3.21365453164E+01  1.46817165330E+00  0.0000E+00  9.0
        3    1    4    4  504    0  3.26274799966E+01 -3.37983437662E+01  3.84802057581E+01  6.07259971301E+01  2.00000000000E-01  0.0000E+00  9.0
  3000022    1    4    4    0    0  1.42078598587E+02 -3.29244884006E+01  1.51994642139E+01  1.58434130873E+02  6.00000000000E+01  0.0000E+00  9.0
</event>
<event>
10    1   3.4312288E-02   4.6640000E+02  -1.0000000E+00   9.4270000E-02
       11   -1    0    0    0    0  0.00000000000E+00  0.00000000000E+00  2.19318759460E+02  2.19318759460E+02  0.00000000000E+00  0.0000E+00  9.0
      -11   -1    0    0    0    0  0.00000000000E+00  0.00000000000E+00 -2.47961745470E+02  2.47961745470E+02  0.00000000000E+00  0.0000E+00  9.0
  3000025    2    1    2    0    0 -1.05433817636E+02  1.28676608608E+02 -4.73879096471E+01  2.35563490462E+02  1.59908050309E+02  9.9970E-13  9.0
 -3000025    2    1    2    0    0  1.05433817636E+02 -1.28676608608E+02  1.87449236311E+01  2.31717014473E+02  1.60210621153E+02  4.3407E-12  9.0
        4    1    3    3  500    0  8.00391656523E+00 -9.62172817137E+00 -3.13253521113E+00  1.29849389001E+01  1.46817165330E+00  0.0000E+00  9.0
       -3    1    3    3    0  500 -5.34690374959E+01  9.69832388324E+01  1.40915967310E+01  1.11639149422E+02  2.00000000000E-01  0.0000E+00  9.0
  3000022    1    3    3    0    0 -5.99686967049E+01  4.13150979469E+01 -5.83469711663E+01  1.10939402140E+02  6.00000000000E+01  0.0000E+00  9.0
       -4    1    4    4    0  504  1.10322240875E+02 -7.81051195610E+01  1.99251641465E+00  1.35194423638E+02  1.46817165330E+00  0.0000E+00  9.0
        3    1    4    4  504    0 -8.16453157437E+00 -1.64827283526E+01  2.02388072125E+01  2.73493917146E+01  2.00000000000E-01  0.0000E+00  9.0
  3000022    1    4    4    0    0  3.27610833484E+00 -3.40887606950E+01 -3.48639999560E+00  6.91731991198E+01  6.00000000000E+01  0.0000E+00  9.0
</event>
<event>
10    1   3.4312288E-02   5.0000000E+02  -1.0000000E+00   9.3490000E-02
       11   -1    0    0    0    0  0.00000000000E+00  0.00000000000E+00  2.50000000000E+02  2.50000000000E+02  0.00000000000E+00  0.0000E+00  9.0
      -11   -1    0    0    0    0  0.00000000000E+00  0.00000000000E+00 -2.49998525740E+02  2.49998525740E+02  0.00000000000E+00  0.0000E+00  9.0
  3000025    2    1    2    0    0  5.07784030817E+01  1.69047871626E+02  7.62356206030E+01  2.49876977314E+02  1.59596380981E+02  1.6257E-12  9.0
 -3000025    2    1    2    0    0 -5.07784030817E+01 -1.69047871626E+02 -7.62341463410E+01  2.50121548429E+02  1.59979732465E+02  1.2959E-13  9.0
        2    1    3    3  500    0  4.37814932248E+01  1.08504728224E+01 -1.10493219156E+01  4.64396321395E+01  3.00000000000E-03  0.0000E+00  9.0
       -1    1    3    3    0  500  8.21113554229E-02  8.13074664142E+01  1.71155326864E+01  8.30894236417E+01  5.00000000000E-03  0.0000E+00  9.0
  3000022    1    3    3    0    0  6.91479850028E+00  7.68899323882E+01  7.01694098313E+01  1.20347921532E+02  6.00000000000E+01  0.0000E+00  9.0
       -2    1    4    4    0  504 -2.94052685732E+01 -7.13889579952E+01  1.24552052449E+01  7.82060438214E+01  3.00000000000E-03  0.0000E+00  9.0
        1    1    4    4  504    0  2.40264310000E+01 -7.28376203148E-02 -1.55720576294E+01  2.86315157777E+01  5.00000000000E-03  0.0000E+00  9.0
  3000022    1    4    4    0    0 -4.53995655096E+01 -9.75860760108E+01 -7.31172939566E+01  1.43283988831E+02  6.00000000000E+01  0.0000E+00  9.0
</event>
<event>
10    1   3.4312288E-02   4.0470000E+02  -1.0000000E+00   9.5890000E-02
       11   -1    0    0    0    0  0.00000000000E+00  0.00000000000E+00  1.97509941400E+02  1.97509941400E+02  0.00000000000E+00  0.0000E+00  9.0
      -11   -1    0    0    0    0  0.00000000000E+00  0.00000000000E+00 -2.07288555900E+02  2.07288555900E+02  0.00000000000E+00  0.0000E+00  9.0
  3000025    2    1    2    0    0 -7.36685692794E+01  8.35700348015E+01 -5.90096103623E+01  2.03693372069E+02  1.59993271401E+02  1.1737E-13  9.0
 -3000025    2    1    2    0    0  7.36685692794E+01 -8.35700348015E+01  4.92309958583E+01  2.01105125233E+02  1.60026784088E+02  8.0192E-13  9.0
        2    1    3    3  500    0  2.26308131087E+01 -1.89652731624E+01 -4.35111916234E+00  2.98457289248E+01  3.00000000000E-03  0.0000E+00  9.0
       -1    1    3    3    0  500 -4.83988848898E+01  2.14864618663E+01 -2.35535077688E+01  5.79559130316E+01  5.00000000000E-03  0.0000E+00  9.0
  3000022    1    3    3    0    0 -4.79004974980E+01  8.10488460975E+01 -3.11049834313E+01  1.15891730113E+02  6.00000000000E+01  0.0000E+00  9.0
       -2    1    4    4    0  504  2.58006271415E+00 -6.17273392653E+01  1.07943557882E+01  6.27171369107E+01  3.00000000000E-03  0.0000E+00  9.0
        1    1    4    4  504    0  4.43537733386E+01  1.18831057680E+01 -1.37919997007E+01  4.79446002467E+01  5.00000000000E-03  0.0000E+00  9.0
  3000022    1    4    4    0    0  2.67347332266E+01 -3.37258013037E+01  5.22286397713E+01  9.04433880758E+01  6.00000000000E+01  0.0000E+00  9.0
</event>
<event>
10    1   3.4312288E-02   4.9900000E+02  -1.0000000E+00   9.3510000E-02
       11   -1    0    0    0    0  0.00000000000E+00  0.00000000000E+00  2.49999997380E+02  2.49999997380E+02  0.00000000000E+00  0.0000E+00  9.0
      -11   -1    0    0    0    0  0.00000000000E+00  0.00000000000E+00 -2.48994207960E+02  2.48994207960E+02  0.00000000000E+00  0.0000E+00  9.0
  3000025    2    1    2    0    0 -8.24375834358E+01 -1.70777554137E+02  2.64902557589E+01  2.49529493771E+02  1.60007207499E+02  2.8385E-14  9.0
 -3000025    2    1    2    0    0  8.24375834358E+01  1.70777554137E+02 -2.54844663429E+01  2.49464711579E+02  1.60069535323E+02  3.2325E-12  9.0
        4    1    3    3  500    0 -2.95735904964E+01 -3.45352096187E+01 -3.87157132552E+01  5.97355835254E+01  1.46817165330E+00  0.0000E+00  9.0
       -3    1    3    3    0  500  1.68189971524E+01 -3.76522001280E+01  2.83043490789E+01  5.00174271276E+01  2.00000000000E-01  0.0000E+00  9.0
  3000022    1    3    3    0    0 -6.96829900916E+01 -9.85901443907E+01  3.69016199352E+01  1.39776483118E+02  6.00000000000E+01  0.0000E+00  9.0
       -4    1    4    4    0  504  4.73455274225E+01  1.03329841720E+02 -1.09294767002E+01  1.14193975961E+02  1.46817165330E+00  0.0000E+00  9.0
        3    1    4    4  504    0  1.01105941834E+00  8.25661493488E+00  3.20471937780E+01  3.31097653325E+01  2.00000000000E-01  0.0000E+00  9.0
  3000022    1    4    4    0    0  3.40809965946E+01  5.91910974813E+01 -4.66021834210E+01  1.02160970285E+02  6.00000000000E+01  0.0000E+00  9.0
</event>
<event>
10    1   3.4312288E-02   4.4450000E+02  -1.0000000E+00   9.4810000E-02
       11   -1    0    0    0    0  0.00000000000E+00  0.00000000000E+00  2.34116125780E+02  2.34116125780E+02  0.00000000000E+00  0.0000E+00  9.0
      -11   -1    0    0    0    0  0.00000000000E+00  0.00000000000E+00 -2.10961156930E+02  2.10961156930E+02  0.00000000000E+00  0.0000E+00  9.0
  3000025    2    1    2    0    0 -1.05156072174E+02 -5.41537947812E+01 -8.74899694387E+01  2.17401154909E+02  1.60057284743E+02  2.3913E-12  9.0
 -3000025    2    1    2    0    0  1.05156072174E+02  5.41537947812E+01  1.10644938294E+02  2.27676127799E+02  1.60011511446E+02  3.6476E-13  9.0
        4    1    3    3  500    0 -5.36648242551E+01 -6.52418040617E+00 -2.25381092137E+00  5.41268277657E+01  1.46817165330E+00  0.0000E+00  9.0
       -3    1    3    3    0  500  1.01068176383E+01  1.64973922947E+01 -4.45120431688E+01  4.85352830666E+01  2.00000000000E-01  0.0000E+00  9.0
  3000022    1    3    3    0    0 -6.15980655578E+01 -6.41270066692E+01 -4.07241153493E+01  1.14739044077E+02  6.00000000000E+01  0.0000E+00  9.0
      -14    1    4    4    0    0  3.34765094968E+01  1.50126490210E+01 -1.29982323629E+01  3.89231340372E+01  0.00000000000E+00  0.0000E+00  9.0
       13    1    4    4    0    0  4.97858164715E+01  4.23647258711E+01  2.25903513944E+01  6.91645333135E+01  1.05700000000E-01  0.0000E+00  9.0
  3000022    1    4    4    0    0  2.18937462058E+01 -3.22358011146E+00  1.01052819261E+02  1.19588460448E+02  6.00000000000E+01  0.0000E+00  9.0
</event>
<event>
10    1   3.4312288E-02   4.9850000E+02  -1.0000000E+00   9.3520000E-02
       11   -1    0    0    0    0  0.00000000000E+00  0.00000000000E+00  2.48508368030E+02  2.48508368030E+02  0.00000000000E+00  0.0000E+00  9.0
      -11   -1    0    0    0    0  0.00000000000E+00  0.00000000000E+00 -2.49993430260E+02  2.49993430260E+02  0.00000000000E+00  0.0000E+00  9.0
  3000025    2    1    2    0    0  1.83540726337E+02  9.59678416256E+00  5.16592711091E+01  2.49096645121E+02  1.60003630673E+02  8.9588E-13  9.0
 -3000025    2    1    2    0    0 -1.83540726337E+02 -9.59678416256E+00 -5.31443333361E+01  2.49405153163E+02  1.59997855511E+02  6.5475E-13  9.0
       14    1    3    3    0    0  1.45621235263E+01 -2.51925184457E+01 -5.32011253767E+00  2.95807711976E+01  0.00000000000E+00  0.0000E+00  9.0
      -13    1    3    3    0    0  5.84454826685E+01  5.96429847357E+01  2.80649767889E+01  8.80954832394E+01  1.05700000000E-01  0.0000E+00  9.0
  3000022    1    3    3    0    0  1.10533120143E+02 -2.48536821264E+01  2.89144068581E+01  1.31420390685E+02  6.00000000000E+01  0.0000E+00  9.0
       -2    1    4    4    0  500 -4.63491306490E+01  3.69618989944E+01 -1.48456700745E+01  6.11131558517E+01  3.00000000000E-03  0.0000E+00  9.0
        1    1    4    4  500    0 -3.11387474784E+01 -3.31015328914E+01  2.33280480731E+01  5.10835680643E+01  5.00000000000E-03  0.0000E+00  9.0
  3000022    1    4    4    0    0 -1.06052848208E+02 -1.34571502658E+01 -6.16267113341E+01  1.37208429246E+02  6.00000000000E+01  0.0000E+00  9.0
</event>
<event>
10    1   3.4312288E-02   4.9870000E+02  -1.0000000E+00   9.3520000E-02
       11   -1    0    0    0    0  0.00000000000E+00  0.00000000000E+00  2.48689531750E+02  2.48689531750E+02  0.00000000000E+00  0.0000E+00  9.0
      -11   -1    0    0    0    0  0.00000000000E+00  0.00000000000E+00 -2.49992937810E+02  2.49992937810E+02  0.00000000000E+00  0.0000E+00  9.0
  3000025    2    1    2    0    0  6.77020584342E+01 -1.35791108174E+02 -1.17167900266E+02  2.49663306571E+02  1.59939538638E+02  1.1932E-12  9.0
 -3000025    2    1    2    0    0 -6.77020584342E+01  1.35791108174E+02  1.15864494206E+02  2.49019162989E+02  1.59884860893E+02  4.4268E-13  9.0
        2    1    3    3  500    0  2.24047793420E+01 -7.65230253543E+00  2.27322923775E+01  3.28220809394E+01  3.00000000000E-03  0.0000E+00  9.0
       -1    1    3    3    0  500  4.44026838866E+01 -5.26755998977E+01 -5.12359326975E+01  8.58570788305E+01  5.00000000000E-03  0.0000E+00  9.0
  3000022    1    3    3    0    0  8.94595204951E-01 -7.54632057410E+01 -8.86642599456E+01  1.30984146800E+02  6.00000000000E+01  0.0000E+00  9.0
       -2    1    4    4    0  504  1.69550820458E+01  3.54017097932E+01 -7.83260308403E+00  4.00263106410E+01  3.00000000000E-03  0.0000E+00  9.0
        1    1    4    4  504    0 -6.02224982918E+01  7.70779570066E+01  5.74078768378E+01  1.13417040628E+02  5.00000000000E-03  0.0000E+00  9.0
  3000022    1    4    4    0    0 -2.44346421883E+01  2.33114413738E+01  6.62892204517E+01  9.55758117198E+01  6.00000000000E+01  0.0000E+00  9.0
</event>
<event>
10    1   3.4312288E-02   4.8900000E+02  -1.0000000E+00   9.3740000E-02
       11   -1    0    0    0    0  0.00000000000E+00  0.00000000000E+00  2.43094426390E+02  2.43094426390E+02  0.00000000000E+00  0.0000E+00  9.0
      -11   -1    0    0    0    0  0.00000000000E+00  0.00000000000E+00 -2.45903173670E+02  2.45903173670E+02  0.00000000000E+00  0.0000E+00  9.0
  3000025    2    1    2    0    0  1.15022398671E+02 -9.44136955981E+01  1.07631188604E+02  2.43524955988E+02  1.59924461281E+02  2.9366E-12  9.0
 -3000025    2    1    2    0    0 -1.15022398671E+02  9.44136955981E+01 -1.10439935884E+02  2.45472644071E+02  1.60983668230E+02  2.6381E-12  9.0
        4    1    3    3  500    0  8.20219332227E+01 -5.60561168110E+01  2.98530009221E+01  1.03746050303E+02  1.46817165330E+00  0.0000E+00  9.0
       -3    1    3    3    0  500  1.83373836138E+01 -2.11876748147E+01  6.97525181976E+01  7.51706791027E+01  2.00000000000E-01  0.0000E+00  9.0
  3000022    1    3    3    0    0  1.46630818350E+01 -1.71699039722E+01  8.02566948389E+00  6.46082265813E+01  6.00000000000E+01  0.0000E+00  9.0
       -2    1    4    4    0  504 -1.23005909364E+01  4.41168640994E+01  2.19461941682E+01  5.07861957900E+01  3.00000000000E-03  0.0000E+00  9.0
        1    1    4    4  504    0 -5.70950343684E+01  2.78041174639E+01 -5.04783826059E+01  8.11232336201E+01  5.00000000000E-03  0.0000E+00  9.0
  3000022    1    4    4    0    0 -4.56267733665E+01  2.24927140348E+01 -8.19077474459E+01  1.13563214661E+02  6.00000000000E+01  0.0000E+00  9.0
</event>
<event>
10    1   3.4312288E-02   4.8860000E+02  -1.0000000E+00   9.3750000E-02
       11   -1    0    0    0    0  0.00000000000E+00  0.00000000000E+00  2.39746908210E+02  2.39746908210E+02  0.00000000000E+00  0.0000E+00  9.0
      -11   -1    0    0    0    0  0.00000000000E+00  0.00000000000E+00 -2.48931644170E+02  2.48931644170E+02  0.00000000000E+00  0.0000E+00  9.0
  3000025    2    1    2    0    0 -1.23412381185E+02 -1.05121084658E+02  8.37763212207E+01  2.42721686426E+02  1.60044640007E+02  9.7382E-13  9.0
 -3000025    2    1    2    0    0  1.23412381185E+02  1.05121084658E+02 -9.29610571747E+01  2.45956865951E+02  1.59912361899E+02  7.6614E-13  9.0
        4    1    3    3  500    0 -3.49008498276E+00 -5.43934712794E+01  6.07115643111E+01  8.16019606389E+01  1.46817165330E+00  0.0000E+00  9.0
       -3    1    3    3    0  500 -1.76681553413E+01  1.01961569808E+01 -1.14968369729E+01  2.34167160534E+01  2.00000000000E-01  0.0000E+00  9.0
  3000022    1    3    3    0    0 -1.02254140861E+02 -6.09237703592E+01  3.45615938817E+01  1.37703009734E+02  6.00000000000E+01  0.0000E+00  9.0
       -4    1    4    4    0  504  2.08199813811E+01 -1.42910281902E+01 -3.70785051829E+01  4.48851443803E+01  1.46817165330E+00  0.0000E+00  9.0
        3    1    4    4  504    0  5.48887082652E+01  4.18600182995E+01  1.54937798841E+01  7.07469338003E+01  2.00000000000E-01  0.0000E+00  9.0
  3000022    1    4    4    0    0  4.77036915388E+01  7.75520945491E+01 -7.13763318758E+01  1.30324787771E+02  6.00000000000E+01  0.0000E+00  9.0
</event>
<event>
10    1   3.4312288E-02   4.8050000E+02  -1.0000000E+00   9.3930000E-02
       11   -1    0    0    0    0  0.00000000000E+00  0.00000000000E+00  2.37648602780E+02  2.37648602780E+02  0.00000000000E+00  0.0000E+00  9.0
      -11   -1    0    0    0    0  0.00000000000E+00  0.00000000000E+00 -2.42830236590E+02  2.42830236590E+02  0.00000000000E+00  0.0000E+00  9.0
  3000025    2    1    2    0    0  1.60459380489E+02 -6.20316044333E+01 -5.30483280530E+01  2.40750591949E+02  1.59848646160E+02  1.9917E-12  9.0
 -3000025    2    1    2    0    0 -1.60459380489E+02  6.20316044333E+01  4.78666942380E+01  2.39728247416E+02  1.59947739767E+02  1.8121E-12  9.0
        2    1    3    3  500    0  1.03583477200E+02 -4.58804140737E+01 -6.14210415221E+01  1.28868512427E+02  3.00000000000E-03  0.0000E+00  9.0
       -1    1    3    3    0  500 -8.82404338657E-01  1.92721713580E+01 -6.08951235460E+00  2.02306058235E+01  5.00000000000E-03  0.0000E+00  9.0
  3000022    1    3    3    0    0  5.77583076266E+01 -3.54233617166E+01  1.44622258240E+01  9.16514736978E+01  6.00000000000E+01  0.0000E+00  9.0
       -4    1    4    4    0  504 -1.01325891412E+01  4.94757311313E+01  1.54244474976E+01  5.28260015739E+01  1.46817165330E+00  0.0000E+00  9.0
        3    1    4    4  504    0 -4.04744352889E+01 -2.48308702662E+01  3.01501638562E+01  5.62478836107E+01  2.00000000000E-01  0.0000E+00  9.0
  3000022    1    4    4    0    0 -1.09852356058E+02  3.73867435677E+01  2.29208288413E+00  1.30654362231E+02  6.00000000000E+01  0.0000E+00  9.0
</event>
<event>
10    1   3.4312288E-02   4.9960000E+02  -1.0000000E+00   9.3500000E-02
       11   -1    0    0    0    0  0.00000000000E+00  0.00000000000E+00  2.50000000000E+02  2.50000000000E+02  0.00000000000E+00  0.0000E+00  9.0
      -11   -1    0    0    0    0  0.00000000000E+00  0.00000000000E+00 -2.49632228190E+02  2.49632228190E+02  0.00000000000E+00  0.0000E+00  9.0
  3000025    2    1    2    0    0  2.34126176838E+01 -1.89705996057E+02  1.67504472433E+01  2.49947545807E+02  1.60177035075E+02  1.2504E-12  9.0
 -3000025    2    1    2    0    0 -2.34126176838E+01  1.89705996057E+02 -1.63826754293E+01  2.49684682385E+02  1.59804671261E+02  4.7351E-13  9.0
        4    1    3    3  500    0 -3.40869008512E+00 -5.70033386618E+01  1.83211046138E+01  5.99901507663E+01  1.46817165330E+00  0.0000E+00  9.0
       -3    1    3    3    0  500  3.36868798151E+01 -8.58793933283E+01 -4.43755823740E+01  1.02368493108E+02  2.00000000000E-01  0.0000E+00  9.0
  3000022    1    3    3    0    0 -6.86557204599E+00 -4.68232640668E+01  4.28049250025E+01  8.75889019332E+01  6.00000000000E+01  0.0000E+00  9.0
       -2    1    4    4    0  504 -3.59022307442E+01  3.92646619624E+00 -3.04209080097E+00  3.62441944957E+01  3.00000000000E-03  0.0000E+00  9.0
        1    1    4    4  504    0 -1.18555660821E+01  1.10145317957E+02  9.82358071887E+00  1.11216223089E+02  5.00000000000E-03  0.0000E+00  9.0
  3000022    1    4    4    0    0  2.43451791428E+01  7.56342119032E+01 -2.31641653469E+01  1.02224264800E+02  6.00000000000E+01  0.0000E+00  9.0
</event>
<event>
10    1   3.4312288E-02   4.9280000E+02  -1.0000000E+00   9.3650000E-02
       11   -1    0    0    0    0  0.00000000000E+00  0.00000000000E+00  2.43211423850E+02  2.43211423850E+02  0.00000000000E+00  0.0000E+00  9.0
      -11   -1    0    0    0    0  0.00000000000E+00  0.00000000000E+00 -2.49652050840E+02  2.49652050840E+02  0.00000000000E+00  0.0000E+00  9.0
  3000025    2    1    2    0    0  1.70771431093E+02  7.69124464461E+01 -8.87674327308E+00  2.46522423366E+02  1.60050312574E+02  5.2617E-12  9.0
 -3000025    2    1    2    0    0 -1.70771431093E+02 -7.69124464461E+01  2.43611627998E+00  2.46341051321E+02  1.59998665018E+02  1.5546E-12  9.0
        4    1    3    3  500    0  1.53036005648E+01 -4.07257157693E+00 -2.34550686030E+01  2.83386979353E+01  1.46817165330E+00  0.0000E+00  9.0
       -3    1    3    3    0  500  5.93767228077E+01  8.20642101367E+01  2.52494767084E+01  1.04392077625E+02  2.00000000000E-01  0.0000E+00  9.0
  3000022    1    3    3    0    0  9.60911077193E+01 -1.07919211484E+00 -1.06711513784E+01  1.13791647805E+02  6.00000000000E+01  0.0000E+00  9.0
       -2    1    4    4    0  504 -4.52112007234E+00 -4.04192437549E+01 -3.88562816126E+00  4.08565038596E+01  3.00000000000E-03  0.0000E+00  9.0
        1    1    4    4  504    0 -1.07583508967E+02 -2.47703784518E+01 -2.82775035141E+01  1.13962275689E+02  5.00000000000E-03  0.0000E+00  9.0
  3000022    1    4    4    0    0 -5.86668020550E+01 -1.17228242393E+01  3.45992479549E+01  9.15222717733E+01  6.00000000000E+01  0.0000E+00  9.0
</event>
<event>
10    1   3.4312288E-02   5.0000000E+02  -1.0000000E+00   9.3490000E-02
       11   -1    0    0    0    0  0.00000000000E+00  0.00000000000E+00  2.49999843870E+02  2.49999843870E+02  0.00000000000E+00  0.0000E+00  9.0
      -11   -1    0    0    0    0  0.00000000000E+00  0.00000000000E+00 -2.49953216650E+02  2.49953216650E+02  0.00000000000E+00  0.0000E+00  9.0
  3000025    2    1    2    0    0  3.77851954092E+01 -1.68133211237E+02 -8.47503305457E+01  2.49993307975E+02  1.60054796215E+02  7.4817E-14  9.0
 -3000025    2    1    2    0    0 -3.77851954092E+01  1.68133211237E+02  8.47969577597E+01  2.49959752543E+02  1.59977673857E+02  2.3933E-12  9.0
        4    1    3    3  500    0  1.95911126352E+01  1.47661538266E+01 -1.28156137968E+01  2.77172595707E+01  1.46817165330E+00  0.0000E+00  9.0
       -3    1    3    3    0  500 -1.64850233586E+01 -8.69065542299E+01 -5.08128185105E+01  1.02012193821E+02  2.00000000000E-01  0.0000E+00  9.0
  3000022    1    3    3    0    0  3.46791061327E+01 -9.59928108339E+01 -2.11218982389E+01  1.20263854583E+02  6.00000000000E+01  0.0000E+00  9.0
       -4    1    4    4    0  504 -6.99846451933E+00  3.96491857282E+01 -3.01748979358E+01  5.03360350840E+01  1.46817165330E+00  0.0000E+00  9.0
        3    1    4    4  504    0 -1.89058825997E+00  8.12007156867E+01  5.13480632439E+01  9.60926331771E+01  2.00000000000E-01  0.0000E+00  9.0
  3000022    1    4    4    0    0 -2.88961426295E+01  4.72833098231E+01  6.36237924517E+01  1.03531084282E+02  6.00000000000E+01  0.0000E+00  9.0
</event>
<event>
10    1   3.4312288E-02   4.3760000E+02  -1.0000000E+00   9.4990000E-02
       11   -1    0    0    0    0  0.00000000000E+00  0.00000000000E+00  2.44784418520E+02  2.44784418520E+02  0.00000000000E+00  0.0000E+00  9.0
      -11   -1    0    0    0    0  0.00000000000E+00  0.00000000000E+00 -1.95536507360E+02  1.95536507360E+02  0.00000000000E+00  0.0000E+00  9.0
  3000025    2    1    2    0    0  5.74027321689E+01  1.22468912555E+02  8.78160163631E+01  2.27230395507E+02  1.60088387179E+02  2.2800E-13  9.0
 -3000025    2    1    2    0    0 -5.74027321689E+01 -1.22468912555E+02 -3.85681052001E+01  2.13090530368E+02  1.60082376265E+02  2.5054E-12  9.0
        2    1    3    3  500    0  7.03400311503E+01  3.15501430172E+01  4.06678524445E+01  8.71608039091E+01  3.00000000000E-03  0.0000E+00  9.0
       -1    1    3    3    0  500 -1.94848898839E+01  1.81471356036E+01  3.61359105803E+01  4.48863400477E+01  5.00000000000E-03  0.0000E+00  9.0
  3000022    1    3    3    0    0  6.54759090244E+00  7.27716339342E+01  1.10122533376E+01  9.51832515501E+01  6.00000000000E+01  0.0000E+00  9.0
       -2    1    4    4    0  504 -2.82653507808E+01 -6.04238999214E+01 -6.20195119082E+01  9.10845629226E+01  3.00000000000E-03  0.0000E+00  9.0
        1    1    4    4  504    0  2.19078931179E+01 -1.11223194428E+01  1.25021866808E+01  2.75674893209E+01  5.00000000000E-03  0.0000E+00  9.0
  3000022    1    4    4    0    0 -5.10452745062E+01 -5.09226931906E+01  1.09492200272E+01  9.44384781241E+01  6.00000000000E+01  0.0000E+00  9.0
</event>
<event>
10    1   3.4312288E-02   4.9310000E+02  -1.0000000E+00   9.3640000E-02
       11   -1    0    0    0    0  0.00000000000E+00  0.00000000000E+00  2.43147067900E+02  2.43147067900E+02  0.00000000000E+00  0.0000E+00  9.0
      -11   -1    0    0    0    0  0.00000000000E+00  0.00000000000E+00 -2.50000000000E+02  2.50000000000E+02  0.00000000000E+00  0.0000E+00  9.0
  3000025    2    1    2    0    0  8.00432930817E+01  1.65286963996E+02  3.27326319088E+01  2.46122653968E+02  1.60555991387E+02  3.8517E-12  9.0
 -3000025    2    1    2    0    0 -8.00432930817E+01 -1.65286963996E+02 -3.95855640058E+01  2.47024413928E+02  1.60397428172E+02  1.9262E-13  9.0
        2    1    3    3  500    0 -2.52886312757E+01  2.01787516033E+01 -2.42928006525E+01  4.04578430050E+01  3.00000000000E-03  0.0000E+00  9.0
       -1    1    3    3    0  500  4.58407188837E+01  2.99024767913E+01  1.59839241893E+01  5.70176769390E+01  5.00000000000E-03  0.0000E+00  9.0
  3000022    1    3    3    0    0  5.94912054737E+01  1.15205735602E+02  4.10415083718E+01  1.48647134025E+02  6.00000000000E+01  0.0000E+00  9.0
       -4    1    4    4    0  504 -3.33056003656E+01 -4.53804989381E+01 -5.52425663074E+01  7.88831373604E+01  1.46817165330E+00  0.0000E+00  9.0
        3    1    4    4  504    0 -4.03558949436E+01 -9.21375956390E+01  1.51147093433E+01  1.01717398833E+02  2.00000000000E-01  0.0000E+00  9.0
  3000022    1    4    4    0    0 -6.38179777275E+00 -2.77688694186E+01  5.42292958271E-01  6.64238777342E+01  6.00000000000E+01  0.0000E+00  9.0
</event>
<event>
10    1   3.4312288E-02   4.5950000E+02  -1.0000000E+00   9.4440000E-02
       11   -1    0    0    0    0  0.00000000000E+00  0.00000000000E+00  2.41493002450E+02  2.41493002450E+02  0.00000000000E+00  0.0000E+00  9.0
      -11   -1    0    0    0    0  0.00000000000E+00  0.00000000000E+00 -2.18530836280E+02  2.18530836280E+02  0.00000000000E+00  0.0000E+00  9.0
  3000025    2    1    2    0    0  1.38730745905E+02 -2.61541606746E+01  9.60830671094E+01  2.34441192329E+02  1.60625206289E+02  1.2305E-13  9.0
 -3000025    2    1    2    0    0 -1.38730745905E+02  2.61541606746E+01 -7.31209009404E+01  2.25582646401E+02  1.60033134766E+02  3.9957E-13  9.0
        2    1    3    3  500    0  2.08723376735E+01  1.85561216267E+01  4.32881533941E+01  5.15155157507E+01  3.00000000000E-03  0.0000E+00  9.0
       -1    1    3    3    0  500  1.02171757328E+02 -4.78397375845E+01  3.85038127453E+01  1.19206762009E+02  5.00000000000E-03  0.0000E+00  9.0
  3000022    1    3    3    0    0  1.56866509034E+01  3.12945528323E+00  1.42911009700E+01  6.37189145691E+01  6.00000000000E+01  0.0000E+00  9.0
       -2    1    4    4    0  504 -6.18708084771E+01  4.28851672884E+01 -5.47845513337E+01  9.31046808104E+01  3.00000000000E-03  0.0000E+00  9.0
        1    1    4    4  504    0 -6.46079723212E+01 -1.67755177335E+01  5.01549090228E+00  6.69385035437E+01  5.00000000000E-03  0.0000E+00  9.0
  3000022    1    4    4    0    0 -1.22519651057E+01  4.45111195988E-02 -2.33518405087E+01  6.55394620464E+01  6.00000000000E+01  0.0000E+00  9.0
</event>
<event>
10    1   3.4312288E-02   4.9940000E+02  -1.0000000E+00   9.3500000E-02
       11   -1    0    0    0    0  0.00000000000E+00  0.00000000000E+00  2.50000000000E+02  2.50000000000E+02  0.00000000000E+00  0.0000E+00  9.0
      -11   -1    0    0    0    0  0.00000000000E+00  0.00000000000E+00 -2.49397448940E+02  2.49397448940E+02  0.00000000000E+00  0.0000E+00  9.0
  3000025    2    1    2    0    0  1.72259367551E+02 -2.10393548859E+01  8.16299404530E+01  2.49777003613E+02  1.60028623040E+02  3.5307E-13  9.0
 -3000025    2    1    2    0    0 -1.72259367551E+02  2.10393548859E+01 -8.10273893940E+01  2.49620445333E+02  1.60090551667E+02  5.3403E-13  9.0
        4    1    3    3  500    0  1.42735283550E+02  1.32900439295E+01  4.52405992042E+01  1.50329151472E+02  1.46817165330E+00  0.0000E+00  9.0
       -3    1    3    3    0  500 -1.02102604606E+01 -3.28985455446E+00 -3.78647734142E+00  1.13776083743E+01  2.00000000000E-01  0.0000E+00  9.0
  3000022    1    3    3    0    0  3.97343444613E+01 -3.10395442613E+01  4.01758185898E+01  8.80702437664E+01  6.00000000000E+01  0.0000E+00  9.0
       -4    1    4    4    0  504 -6.08923585755E+01 -2.41319353200E+01 -1.53168578734E+01  6.72829198110E+01  1.46817165330E+00  0.0000E+00  9.0
        3    1    4    4  504    0 -1.18395578525E+01  1.81321927211E+01 -5.89794236911E+01  6.28296423828E+01  2.00000000000E-01  0.0000E+00  9.0
  3000022    1    4    4    0    0 -9.95274511232E+01  2.70390974837E+01 -6.73110783022E+00  1.19507883139E+02  6.00000000000E+01  0.0000E+00  9.0
</event>
<event>
10    1   3.4312288E-02   4.7280000E+02  -1.0000000E+00   9.4110000E-02
       11   -1    0    0    0    0  0.00000000000E+00  0.00000000000E+00  2.26362473380E+02  2.26362473380E+02  0.00000000000E+00  0.0000E+00  9.0
      -11   -1    0    0    0    0  0.00000000000E+00  0.00000000000E+00 -2.46915867360E+02  2.46915867360E+02  0.00000000000E+00  0.0000E+00  9.0
  3000025    2    1    2    0    0  1.45445834181E+02 -7.55986395212E+01  4.84511340398E+01  2.34076755953E+02  1.59921137784E+02  1.9112E-13  9.0
 -3000025    2    1    2    0    0 -1.45445834181E+02  7.55986395212E+01 -6.90045280218E+01  2.39201584785E+02  1.59956645057E+02  4.6653E-12  9.0
       14    1    3    3    0    0  8.01953984637E+01 -8.99575566072E+00  3.58644077240E+01  8.83090102767E+01  0.00000000000E+00  0.0000E+00  9.0
      -13    1    3    3    0    0 -1.83039898100E+01 -6.03545484843E+00  1.78634630848E+01  2.62788364290E+01  1.05700000000E-01  0.0000E+00  9.0
  3000022    1    3    3    0    0  8.35544255270E+01 -6.05674290129E+01 -5.27673676862E+00  1.19488909248E+02  6.00000000000E+01  0.0000E+00  9.0
       -4    1    4    4    0  500 -3.57228533645E+01  5.75161905015E+01 -2.29315818183E+01  7.14999817831E+01  1.46817165330E+00  0.0000E+00  9.0
        3    1    4    4  500    0 -7.46148564569E+00 -2.49085070195E+01 -3.13456115988E+01  4.07270776816E+01  2.00000000000E-01  0.0000E+00  9.0
  3000022    1    4    4    0    0 -1.02261495170E+02  4.29909560383E+01 -1.47273346047E+01  1.26974525319E+02  6.00000000000E+01  0.0000E+00  9.0
</event>
<event>
10    1   3.4312288E-02   5.0000000E+02  -1.0000000E+00   9.3490000E-02
       11   -1    0    0    0    0  0.00000000000E+00  0.00000000000E+00  2.49999838590E+02  2.49999838590E+02  0.00000000000E+00  0.0000E+00  9.0
      -11   -1    0    0    0    0  0.00000000000E+00  0.00000000000E+00 -2.49993689040E+02  2.49993689040E+02  0.00000000000E+00  0.0000E+00  9.0
  3000025    2    1    2    0    0 -3.67559236302E+01 -1.47508305272E+02  1.17400820666E+02  2.49939214169E+02  1.59927983918E+02  2.1359E-12  9.0
 -3000025    2    1    2    0    0  3.67559236302E+01  1.47508305272E+02 -1.17394671116E+02  2.50054313462E+02  1.60112313170E+02  9.8044E-13  9.0
       14    1    3    3    0    0  1.60941199093E+01 -5.26861048416E+01  2.49739782240E+01  6.04859151156E+01  0.00000000000E+00  0.0000E+00  9.0
      -13    1    3    3    0    0 -3.21736178041E+01  3.64610747263E+00  5.95435643181E+01  6.77781897553E+01  1.05700000000E-01  0.0000E+00  9.0
  3000022    1    3    3    0    0 -2.06764257354E+01 -9.84683079029E+01  3.28832781239E+01  1.21675109298E+02  6.00000000000E+01  0.0000E+00  9.0
       -4    1    4    4    0  500 -2.71565744176E+00  7.85180246569E+01  1.28507784759E+01  7.96225660651E+01  1.46817165330E+00  0.0000E+00  9.0
        3    1    4    4  500    0 -6.29352513703E+00  1.70037550575E+01 -2.50084183462E+01  3.08900814645E+01  2.00000000000E-01  0.0000E+00  9.0
  3000022    1    4    4    0    0  4.57651062089E+01  5.19865255571E+01 -1.05237031245E+02  1.39541665932E+02  6.00000000000E+01  0.0000E+00  9.0
</event>
<event>
10    1   3.4312288E-02   4.8530000E+02  -1.0000000E+00   9.3820000E-02
       11   -1    0    0    0    0  0.00000000000E+00  0.00000000000E+00  2.44722956370E+02  2.44722956370E+02  0.00000000000E+00  0.0000E+00  9.0
      -11   -1    0    0    0    0  0.00000000000E+00  0.00000000000E+00 -2.40629980060E+02  2.40629980060E+02  0.00000000000E+00  0.0000E+00  9.0
  3000025    2    1    2    0    0 -1.81849679435E+02 -1.38920123714E+01 -9.65579227101E+00  2.42867423394E+02  1.60090777696E+02  5.3894E-13  9.0
 -3000025    2    1    2    0    0  1.81849679435E+02  1.38920123714E+01  1.37487685844E+01  2.42485513033E+02  1.59210242997E+02  8.8434E-13  9.0
        4    1    3    3  500    0 -1.35333604624E+01  9.15094848237E+00  4.24919355302E+01  4.55479068305E+01  1.46817165330E+00  0.0000E+00  9.0
       -3    1    3    3    0  500 -7.50247200097E+01  6.63404990928E+00 -1.66546281310E+01  7.71371238050E+01  2.00000000000E-01  0.0000E+00  9.0
  3000022    1    3    3    0    0 -9.32915989635E+01 -2.96770107631E+01 -3.54930996702E+01  1.20182392759E+02  6.00000000000E+01  0.0000E+00  9.0
       -2    1    4    4    0  504  5.85282358034E+00 -1.44929412492E+01 -2.40510071039E+01  2.86836511209E+01  3.00000000000E-03  0.0000E+00  9.0
        1    1    4    4  504    0  1.00255687318E+02 -1.64049162800E+01  3.43637198330E+01  1.07243598333E+02  5.00000000000E-03  0.0000E+00  9.0
  3000022    1    4    4    0    0  7.57411685369E+01  4.47898699016E+01  3.43605585448E+00  1.06558263579E+02  6.00000000000E+01  0.0000E+00  9.0
</event>
<event>
10    1   3.4312288E-02   4.9250000E+02  -1.0000000E+00   9.3660000E-02
       11   -1    0    0    0    0  0.00000000000E+00  0.00000000000E+00  2.49999992180E+02  2.49999992180E+02  0.00000000000E+00  0.0000E+00  9.0
      -11   -1    0    0    0    0  0.00000000000E+00  0.00000000000E+00 -2.42579332480E+02  2.42579332480E+02  0.00000000000E+00  0.0000E+00  9.0
  3000025    2    1    2    0    0 -1.32955968662E+02  7.68382884887E+01 -1.03352650134E+02  2.44732704156E+02  1.60096577144E+02  4.1638E-13  9.0
 -3000025    2    1    2    0    0  1.32955968662E+02 -7.68382884887E+01  1.10773309834E+02  2.47846620505E+02  1.59924385081E+02  8.5291E-13  9.0
        2    1    3    3  500    0 -8.51687769445E+00  2.09867446173E+01  1.19025093081E+01  2.55861367174E+01  3.00000000000E-03  0.0000E+00  9.0
       -1    1    3    3    0  500 -5.47415604929E+01 -1.72722037538E+01 -7.60556544746E+01  9.52860434181E+01  5.00000000000E-03  0.0000E+00  9.0
  3000022    1    3    3    0    0 -6.96975304742E+01  7.31237476253E+01 -3.91995049674E+01  1.23860524021E+02  6.00000000000E+01  0.0000E+00  9.0
       -2    1    4    4    0  504  2.83961568845E+00 -4.85769486797E+01  2.82732822508E+01  5.62775431102E+01  3.00000000000E-03  0.0000E+00  9.0
        1    1    4    4  504    0  8.56646514672E+01 -1.95310294314E+01  7.58868733177E+01  1.16097851783E+02  5.00000000000E-03  0.0000E+00  9.0
  3000022    1    4    4    0    0  4.44517015059E+01 -8.73031037664E+00  6.61315426637E+00  7.54712256121E+01  6.00000000000E+01  0.0000E+00  9.0
</event>
<event>
10    1   3.4312288E-02   4.9320000E+02  -1.0000000E+00   9.3640000E-02
       11   -1    0    0    0    0  0.00000000000E+00  0.00000000000E+00  2.48682406850E+02  2.48682406850E+02  0.00000000000E+00  0.0000E+00  9.0
      -11   -1    0    0    0    0  0.00000000000E+00  0.00000000000E+00 -2.44518611280E+02  2.44518611280E+02  0.00000000000E+00  0.0000E+00  9.0
  3000025    2    1    2    0    0  3.55966530570E+01 -1.78214489860E+02  4.88281062638E+01  2.46968437476E+02  1.59942799285E+02  1.4089E-12  9.0
 -3000025    2    1    2    0    0 -3.55966530570E+01  1.78214489860E+02 -4.46643106908E+01  2.46232580661E+02  1.60025176222E+02  1.3579E-12  9.0
        4    1    3    3  500    0  4.37167559686E+01 -8.66120830050E+01  1.31038609998E+01  9.79115640565E+01  1.46817165330E+00  0.0000E+00  9.0
       -3    1    3    3    0  500 -2.23398668170E+01 -2.91328467501E+01  4.79958342595E+01  6.04270842870E+01  2.00000000000E-01  0.0000E+00  9.0
  3000022    1    3    3    0    0  1.42197639054E+01 -6.24695601060E+01 -1.22715889951E+01  8.86297891334E+01  6.00000000000E+01  0.0000E+00  9.0
       -2    1    4    4    0  504 -5.60459459802E+01  8.22990928863E+01 -1.90444557924E+01  1.01375441090E+02  3.00000000000E-03  0.0000E+00  9.0
        1    1    4    4  504    0  2.24845384706E+01  5.39615483002E+01  1.60104532910E+01  6.06113669602E+01  5.00000000000E-03  0.0000E+00  9.0
  3000022    1    4    4    0    0 -2.03524554747E+00  4.19538486730E+01 -4.16303081898E+01  8.42457726114E+01  6.00000000000E+01  0.0000E+00  9.0
</event>
<event>
10    1   3.4312288E-02   5.0000000E+02  -1.0000000E+00   9.3490000E-02
       11   -1    0    0    0    0  0.00000000000E+00  0.00000000000E+00  2.49999999960E+02  2.49999999960E+02  0.00000000000E+00  0.0000E+00  9.0
      -11   -1    0    0    0    0  0.00000000000E+00  0.00000000000E+00 -2.49999505460E+02  2.49999505460E+02  0.00000000000E+00  0.0000E+00  9.0
  3000025    2    1    2    0    0 -3.22980605740E+01  1.62931526227E+02 -9.64880132254E+01  2.50046113097E+02  1.60072717923E+02  3.0174E-12  9.0
 -3000025    2    1    2    0    0  3.22980605740E+01 -1.62931526227E+02  9.64885077354E+01  2.49953392320E+02  1.59927543756E+02  1.4177E-12  9.0
        4    1    3    3  500    0  3.47812383518E+00  7.79871577818E+01  1.87651339380E+01  8.03018051105E+01  1.46817165330E+00  0.0000E+00  9.0
       -3    1    3    3    0  500  3.44999383005E+00  5.26544898020E+00 -3.57409752814E+01  3.62916619137E+01  2.00000000000E-01  0.0000E+00  9.0
  3000022    1    3    3    0    0 -3.92261782388E+01  7.96789194641E+01 -7.95121718830E+01  1.33452646072E+02  6.00000000000E+01  0.0000E+00  9.0
       -2    1    4    4    0  504  1.26146547116E+01 -9.00489413611E+01  2.35200298229E+01  9.39208878025E+01  3.00000000000E-03  0.0000E+00  9.0
        1    1    4    4  504    0  3.05075826583E+01 -3.64755770102E+01  7.04247726043E+01  8.49754608063E+01  5.00000000000E-03  0.0000E+00  9.0
  3000022    1    4    4    0    0 -1.08241767965E+01 -3.64070078554E+01  2.54370530888E+00  7.10570437114E+01  6.00000000000E+01  0.0000E+00  9.0
</event>
<event>
10    1   3.4312288E-02   5.0000000E+02  -1.0000000E+00   9.3490000E-02
       11   -1    0    0    0    0  0.00000000000E+00  0.00000000000E+00  2.49999924330E+02  2.49999924330E+02  0.00000000000E+00  0.0000E+00  9.0
      -11   -1    0    0    0    0  0.00000000000E+00  0.00000000000E+00 -2.49999999990E+02  2.49999999990E+02  0.00000000000E+00  0.0000E+00  9.0
  3000025    2    1    2    0    0  2.57669011905E+01 -1.62522945625E+02 -9.93797071762E+01  2.50152141611E+02  1.60069131011E+02  2.7209E-12  9.0
 -3000025    2    1    2    0    0 -2.57669011905E+01  1.62522945625E+02  9.93796315152E+01  2.49847782709E+02  1.59593114867E+02  1.9934E-12  9.0
        2    1    3    3  500    0  2.60594279889E+01 -3.64312557973E+01  1.03694792959E+01  4.59766929644E+01  3.00000000000E-03  0.0000E+00  9.0
       -1    1    3    3    0  500  2.26768976666E+01 -6.25191935412E+01 -8.95822699324E+01  1.11570042395E+02  5.00000000000E-03  0.0000E+00  9.0
  3000022    1    3    3    0    0 -2.29694244649E+01 -6.35724962861E+01 -2.01669165397E+01  9.26054062515E+01  6.00000000000E+01  0.0000E+00  9.0
       -2    1    4    4    0  504 -2.52806485002E+01  8.70921187672E+01  5.18427354724E+01  1.04459645654E+02  3.00000000000E-03  0.0000E+00  9.0
        1    1    4    4  504    0 -1.18513883783E+01  1.46793721920E+01 -2.60037113976E+01  3.21268175501E+01  5.00000000000E-03  0.0000E+00  9.0
  3000022    1    4    4    0    0  1.13651356873E+01  6.07514546656E+01  7.35406074416E+01  1.13261319505E+02  6.00000000000E+01  0.0000E+00  9.0
</event>
<event>
10    1   3.4312288E-02   4.9180000E+02  -1.0000000E+00   9.3670000E-02
       11   -1    0    0    0    0  0.00000000000E+00  0.00000000000E+00  2.47928680800E+02  2.47928680800E+02  0.00000000000E+00  0.0000E+00  9.0
      -11   -1    0    0    0    0  0.00000000000E+00  0.00000000000E+00 -2.43886359800E+02  2.43886359800E+02  0.00000000000E+00  0.0000E+00  9.0
  3000025    2    1    2    0    0 -1.66371922836E+02  2.06929889512E+01  8.45805246129E+01  2.46689122186E+02  1.59980753096E+02  2.8517E-12  9.0
 -3000025    2    1    2    0    0  1.66371922836E+02 -2.06929889512E+01 -8.05382036139E+01  2.45125918420E+02  1.59663700132E+02  2.6005E-13  9.0
        2    1    3    3  500    0 -9.34775472714E+00 -2.49578700185E+01  3.23400440660E+01  4.19064941684E+01  3.00000000000E-03  0.0000E+00  9.0
       -1    1    3    3    0  500 -2.64078582827E+01  4.51587441209E+01  1.44766690478E+00  5.23333824067E+01  5.00000000000E-03  0.0000E+00  9.0
  3000022    1    3    3    0    0 -1.30616309826E+02  4.92114848808E-01  5.07928136426E+01  1.52449245611E+02  6.00000000000E+01  0.0000E+00  9.0
      -14    1    4    4    0    0  4.95378112499E+00  2.58296546925E+01 -5.70733592990E-01  2.63065912995E+01  0.00000000000E+00  0.0000E+00  9.0
       13    1    4    4    0    0  3.99358837232E+01 -4.90623311976E+01 -4.84607558358E+01  7.96896679624E+01  1.05700000000E-01  0.0000E+00  9.0
  3000022    1    4    4    0    0  1.21482257988E+02  2.53968755292E+00 -3.15067141851E+01  1.39129659158E+02  6.00000000000E+01  0.0000E+00  9.0
</event>
<event>
10    1   3.4312288E-02   4.6780000E+02  -1.0000000E+00   9.4230000E-02
       11   -1    0    0    0    0  0.00000000000E+00  0.00000000000E+00  2.26635665790E+02  2.26635665790E+02  0.00000000000E+00  0.0000E+00  9.0
      -11   -1    0    0    0    0  0.00000000000E+00  0.00000000000E+00 -2.41384919960E+02  2.41384919960E+02  0.00000000000E+00  0.0000E+00  9.0
  3000025    2    1    2    0    0  1.48004670160E+02  8.06131046066E+01 -3.04921620101E+01  2.34462696026E+02  1.60122231000E+02  4.9673E-12  9.0
 -3000025    2    1    2    0    0 -1.48004670160E+02 -8.06131046066E+01  1.57429078421E+01  2.33557889726E+02  1.60927293156E+02  2.9051E-12  9.0
        4    1    3    3  500    0  9.67741623314E+01  4.51451023409E+01 -5.46692739655E+01  1.19975846754E+02  1.46817165330E+00  0.0000E+00  9.0
       -3    1    3    3    0  500  9.25944509138E+00  3.65883396413E+01  1.52759251850E+01  4.07165545124E+01  2.00000000000E-01  0.0000E+00  9.0
  3000022    1    3    3    0    0  4.19710627372E+01 -1.12033737470E+00  8.90118677033E+00  7.37702947605E+01  6.00000000000E+01  0.0000E+00  9.0
       -4    1    4    4    0  504 -1.67722618021E+01 -6.64111086895E+01  2.95425858511E+01  7.46100799497E+01  1.46817165330E+00  0.0000E+00  9.0
        3    1    4    4  504    0 -3.38223090907E+01 -1.61506105930E+00 -2.67123766699E+01  4.31294340539E+01  2.00000000000E-01  0.0000E+00  9.0
  3000022    1    4    4    0    0 -9.74100992664E+01 -1.25869348577E+01  1.29126986616E+01  1.15818375722E+02  6.00000000000E+01  0.0000E+00  9.0
</event>
<event>
10    1   3.4312288E-02   4.8400000E+02  -1.0000000E+00   9.3850000E-02
       11   -1    0    0    0    0  0.00000000000E+00  0.00000000000E+00  2.34259746860E+02  2.34259746860E+02  0.00000000000E+00  0.0000E+00  9.0
      -11   -1    0    0    0    0  0.00000000000E+00  0.00000000000E+00 -2.49999998870E+02  2.49999998870E+02  0.00000000000E+00  0.0000E+00  9.0
  3000025    2    1    2    0    0 -1.02814428494E+02  1.45026241003E+02 -4.49294317846E+01  2.43345277373E+02  1.59983914482E+02  1.2386E-12  9.0
 -3000025    2    1    2    0    0  1.02814428494E+02 -1.45026241003E+02  2.91891797756E+01  2.40914468350E+02  1.59951103648E+02  3.0477E-12  9.0
        2    1    3    3  500    0 -2.82886678048E+01  7.79847801445E+01 -6.05000378433E+01  1.02674871553E+02  3.00000000000E-03  0.0000E+00  9.0
       -1    1    3    3    0  500  3.71837510358E+00 -9.21112342569E+00  1.25269353400E+01  1.59873463147E+01  5.00000000000E-03  0.0000E+00  9.0
  3000022    1    3    3    0    0 -7.82441357940E+01  7.62525842847E+01  3.04367071961E+00  1.24683059506E+02  6.00000000000E+01  0.0000E+00  9.0
       -2    1    4    4    0  504  2.59246642887E+01 -1.13567547028E+01 -2.72172880252E+01  3.92663325548E+01  3.00000000000E-03  0.0000E+00  9.0
        1    1    4    4  504    0  4.78782160728E+01 -3.54802366257E+01  5.77305277015E+01  8.29697813605E+01  5.00000000000E-03  0.0000E+00  9.0
  3000022    1    4    4    0    0  2.90115481336E+01 -9.81892496751E+01 -1.32405990062E+00  1.18678354435E+02  6.00000000000E+01  0.0000E+00  9.0
</event>
<event>
10    1   3.4312288E-02   4.5620000E+02  -1.0000000E+00   9.4520000E-02
       11   -1    0    0    0    0  0.00000000000E+00  0.00000000000E+00  2.26973559390E+02  2.26973559390E+02  0.00000000000E+00  0.0000E+00  9.0
      -11   -1    0    0    0    0  0.00000000000E+00  0.00000000000E+00 -2.29189333130E+02  2.29189333130E+02  0.00000000000E+00  0.0000E+00  9.0
  3000025    2    1    2    0    0 -7.28713543318E+00 -1.33253480671E+02  9.16878226085E+01  2.27640897087E+02  1.60012901849E+02  1.5820E-12  9.0
 -3000025    2    1    2    0    0  7.28713543318E+00  1.33253480671E+02 -9.39035963485E+01  2.28521995438E+02  1.59983825864E+02  2.3497E-13  9.0
       14    1    3    3    0    0  3.58755099868E+00 -6.95621135087E+01 -1.35253001129E+01  7.09555628623E+01  0.00000000000E+00  0.0000E+00  9.0
      -13    1    3    3    0    0 -5.81820754105E+00 -5.17005066910E+01  6.51516838213E+01  8.33759378258E+01  1.05700000000E-01  0.0000E+00  9.0
  3000022    1    3    3    0    0 -5.05647889080E+00 -1.19908604717E+01  4.00614388994E+01  7.33093963985E+01  6.00000000000E+01  0.0000E+00  9.0
       -2    1    4    4    0  500 -9.87756106343E+00  1.65418760333E+01  2.62394354249E+01  3.25531543123E+01  3.00000000000E-03  0.0000E+00  9.0
        1    1    4    4  500    0 -2.06725877783E+01  5.74969204322E+01 -6.05284613838E+01  8.60055021911E+01  5.00000000000E-03  0.0000E+00  9.0
  3000022    1    4    4    0    0  3.78372842750E+01  5.92146842066E+01 -5.96145703908E+01  1.09963338936E+02  6.00000000000E+01  0.0000E+00  9.0
</event>
<event>
10    1   3.4312288E-02   4.8980000E+02  -1.0000000E+00   9.3720000E-02
       11   -1    0    0    0    0  0.00000000000E+00  0.00000000000E+00  2.49201382550E+02  2.49201382550E+02  0.00000000000E+00  0.0000E+00  9.0
      -11   -1    0    0    0    0  0.00000000000E+00  0.00000000000E+00 -2.40712806540E+02  2.40712806540E+02  0.00000000000E+00  0.0000E+00  9.0
  3000025    2    1    2    0    0  1.38915741160E+02  1.09884232670E+02  5.89240517803E+01  2.45813950968E+02  1.59938509686E+02  6.4581E-13  9.0
 -3000025    2    1    2    0    0 -1.38915741160E+02 -1.09884232670E+02 -5.04354757693E+01  2.44100238116E+02  1.60215671208E+02  4.2143E-12  9.0
       14    1    3    3    0    0 -7.65139177757E+00  2.99988147544E+01  2.79831075017E+01  4.17316065860E+01  0.00000000000E+00  0.0000E+00  9.0
      -13    1    3    3    0    0  6.01605028170E+01 -1.27013243136E+01  1.23905422431E+01  6.27227745566E+01  1.05700000000E-01  0.0000E+00  9.0
  3000022    1    3    3    0    0  8.64066301196E+01  9.25867422296E+01  1.85504020359E+01  1.41359569825E+02  6.00000000000E+01  0.0000E+00  9.0
      -14    1    4    4    0    0 -6.23641106664E+01  2.43145269243E+00 -7.63694999056E+00  6.28770010939E+01  0.00000000000E+00  0.0000E+00  9.0
       13    1    4    4    0    0 -6.82608689077E+01 -7.14825083406E+01 -4.39379384658E+01  1.08165839486E+02  1.05700000000E-01  0.0000E+00  9.0
  3000022    1    4    4    0    0 -8.29076158600E+00 -4.08331770213E+01  1.13941268651E+00  7.30573975351E+01  6.00000000000E+01  0.0000E+00  9.0
</event>
<event>
10    1   3.4312288E-02   4.8590000E+02  -1.0000000E+00   9.3810000E-02
       11   -1    0    0    0    0  0.00000000000E+00  0.00000000000E+00  2.36092184680E+02  2.36092184680E+02  0.00000000000E+00  0.0000E+00  9.0
      -11   -1    0    0    0    0  0.00000000000E+00  0.00000000000E+00 -2.50000000000E+02  2.50000000000E+02  0.00000000000E+00  0.0000E+00  9.0
  3000025    2    1    2    0    0 -1.73710327527E+02  5.67914211124E+01 -5.22330561070E+00  2.43050911954E+02  1.60143434079E+02  9.2796E-13  9.0
 -3000025    2    1    2    0    0  1.73710327527E+02 -5.67914211124E+01 -8.68450970770E+00  2.43041272721E+02  1.59978423968E+02  5.4224E-13  9.0
        2    1    3    3  500    0 -3.85164990798E+00 -1.79435977606E+01 -2.41485334645E+00  1.85105222318E+01  3.00000000000E-03  0.0000E+00  9.0
       -1    1    3    3    0  500 -8.28082978781E+01  7.83555268706E+01  2.14592467932E+01  1.16005612306E+02  5.00000000000E-03  0.0000E+00  9.0
  3000022    1    3    3    0    0 -8.70503797410E+01 -3.62050799760E+00 -2.42676990569E+01  1.08534777416E+02  6.00000000000E+01  0.0000E+00  9.0
       -2    1    4    4    0  504  1.56632739668E+01 -7.03824746512E-01 -3.60597162943E+01  3.93209444045E+01  3.00000000000E-03  0.0000E+00  9.0
        1    1    4    4  504    0  1.30483773966E+00 -1.80635776088E+01  2.59284585452E+01  3.16272102008E+01  5.00000000000E-03  0.0000E+00  9.0
  3000022    1    4    4    0    0  1.56742215821E+02 -3.80240187568E+01  1.44674804184E+00  1.72093118116E+02  6.00000000000E+01  0.0000E+00  9.0
</event>
<event>
10    1   3.4312288E-02   5.0000000E+02  -1.0000000E+00   9.3490000E-02
       11   -1    0    0    0    0  0.00000000000E+00  0.00000000000E+00  2.49999984460E+02  2.49999984460E+02  0.00000000000E+00  0.0000E+00  9.0
      -11   -1    0    0    0    0  0.00000000000E+00  0.00000000000E+00 -2.50000000000E+02  2.50000000000E+02  0.00000000000E+00  0.0000E+00  9.0
  3000025    2    1    2    0    0 -5.51115701036E+01  9.23330389745E+01 -1.59336789007E+02  2.49999143822E+02  1.59839558106E+02  1.6425E-12  9.0
 -3000025    2    1    2    0    0  5.51115701036E+01 -9.23330389745E+01  1.59336773467E+02  2.50000840641E+02  1.59842227515E+02  1.2866E-12  9.0
        2    1    3    3  500    0 -3.07963252982E+01  4.45710207720E+01 -6.05794266385E+01  8.12702681512E+01  3.00000000000E-03  0.0000E+00  9.0
       -1    1    3    3    0  500 -1.51264846963E+01 -3.00675578308E+01 -7.89239666249E+00  3.45710648267E+01  5.00000000000E-03  0.0000E+00  9.0
  3000022    1    3    3    0    0 -9.18876010823E+00  7.78295760332E+01 -9.08649657055E+01  1.34157810844E+02  6.00000000000E+01  0.0000E+00  9.0
      -14    1    4    4    0    0  1.27283747534E+01  1.94528862195E+01  5.05054266078E+01  5.55987807688E+01  0.00000000000E+00  0.0000E+00  9.0
       13    1    4    4    0    0  2.40794239459E+01 -5.73241927766E+01  8.97211569262E+01  1.09159419693E+02  1.05700000000E-01  0.0000E+00  9.0
  3000022    1    4    4    0    0  1.83037714042E+01 -5.44617324163E+01  1.91101899323E+01  8.52426401788E+01  6.00000000000E+01  0.0000E+00  9.0
</event>
<event>
10    1   3.4312288E-02   4.5740000E+02  -1.0000000E+00   9.4490000E-02
       11   -1    0    0    0    0  0.00000000000E+00  0.00000000000E+00  2.25605683930E+02  2.25605683930E+02  0.00000000000E+00  0.0000E+00  9.0
      -11   -1    0    0    0    0  0.00000000000E+00  0.00000000000E+00 -2.31827502060E+02  2.31827502060E+02  0.00000000000E+00  0.0000E+00  9.0
  3000025    2    1    2    0    0  4.24116369019E+00 -1.19452690058E+02 -1.13829692165E+02  2.29843599447E+02  1.59949832000E+02  1.1012E-12  9.0
 -3000025    2    1    2    0    0 -4.24116369019E+00  1.19452690058E+02  1.07607874045E+02  2.27589586552E+02  1.61029912498E+02  4.8591E-13  9.0
        4    1    3    3  500    0  1.61714786842E+01 -8.72020590375E+01 -9.02214099360E+01  1.26521832749E+02  1.46817165330E+00  0.0000E+00  9.0
       -3    1    3    3    0  500  5.58430128435E+00  1.44062969336E+01 -1.99555406810E+01  2.52386492516E+01  2.00000000000E-01  0.0000E+00  9.0
  3000022    1    3    3    0    0 -1.75146162783E+01 -4.66569279537E+01 -3.65274154946E+00  7.80831174473E+01  6.00000000000E+01  0.0000E+00  9.0
       -4    1    4    4    0  504 -2.81892299325E+01  7.71074798655E+01  2.01631155672E+01  8.45511850465E+01  1.46817165330E+00  0.0000E+00  9.0
        3    1    4    4  504    0 -1.32027162467E+01 -1.48273423775E+01  2.86079255144E+01  3.48226248366E+01  2.00000000000E-01  0.0000E+00  9.0
  3000022    1    4    4    0    0  3.71507824891E+01  5.71725525700E+01  5.88368329637E+01  1.08215776669E+02  6.00000000000E+01  0.0000E+00  9.0
</event>
<event>
10    1   3.4312288E-02   4.5340000E+02  -1.0000000E+00   9.4590000E-02
       11   -1    0    0    0    0  0.00000000000E+00  0.00000000000E+00  2.11706467680E+02  2.11706467680E+02  0.00000000000E+00  0.0000E+00  9.0
      -11   -1    0    0    0    0  0.00000000000E+00  0.00000000000E+00 -2.42773190870E+02  2.42773190870E+02  0.00000000000E+00  0.0000E+00  9.0
  3000025    2    1    2    0    0  2.59160212409E+01  1.13878791750E+02 -1.25968041316E+02  2.34818074165E+02  1.60098598226E+02  7.6251E-13  9.0
 -3000025    2    1    2    0    0 -2.59160212409E+01 -1.13878791750E+02  9.49013181154E+01  2.19661584392E+02  1.60015412102E+02  5.3076E-13  9.0
       14    1    3    3    0    0 -3.12172397684E+01  9.67129709672E+00 -4.77319376288E+01  5.78479724458E+01  0.00000000000E+00  0.0000E+00  9.0
      -13    1    3    3    0    0  4.84523832923E+01  1.95329881239E+01 -4.08715117065E+01  6.63299533651E+01  1.05700000000E-01  0.0000E+00  9.0
  3000022    1    3    3    0    0  8.68087771655E+00  8.46745065278E+01 -3.73645919802E+01  1.10640148353E+02  6.00000000000E+01  0.0000E+00  9.0
       -2    1    4    4    0  500 -6.82671717949E+00 -5.77812156655E+01  1.56904985078E+01  6.02616354214E+01  3.00000000000E-03  0.0000E+00  9.0
        1    1    4    4  500    0 -5.09072646126E+00 -7.30472315086E+00  8.03082296873E+01  8.08002862415E+01  5.00000000000E-03  0.0000E+00  9.0
  3000022    1    4    4    0    0 -1.39985776001E+01 -4.87928529324E+01 -1.09741007969E+00  7.85996627282E+01  6.00000000000E+01  0.0000E+00  9.0
</event>
<event>
10    1   3.4312288E-02   4.9450000E+02  -1.0000000E+00   9.3610000E-02
       11   -1    0    0    0    0  0.00000000000E+00  0.00000000000E+00  2.46820761870E+02  2.46820761870E+02  0.00000000000E+00  0.0000E+00  9.0
      -11   -1    0    0    0    0  0.00000000000E+00  0.00000000000E+00 -2.47644841580E+02  2.47644841580E+02  0.00000000000E+00  0.0000E+00  9.0
  3000025    2    1    2    0    0  2.80187107544E+01  1.68258389390E+02 -8.05869586484E+01  2.47414864365E+02  1.60074743330E+02  5.7492E-13  9.0
 -3000025    2    1    2    0    0 -2.80187107544E+01 -1.68258389390E+02  7.97628789374E+01  2.47050739088E+02  1.59925035799E+02  1.0369E-12  9.0
        4    1    3    3  500    0  1.76131184628E+01  2.32536507540E+01  3.39678862734E+01  4.47987392821E+01  1.46817165330E+00  0.0000E+00  9.0
       -3    1    3    3    0  500  8.68341870914E+00  3.38884288873E+00 -1.99967913078E+01  2.20634919995E+01  2.00000000000E-01  0.0000E+00  9.0
  3000022    1    3    3    0    0  1.72217358172E+00  1.41615895747E+02 -9.45580536139E+01  1.80552633084E+02  6.00000000000E+01  0.0000E+00  9.0
       -4    1    4    4    0  504 -3.77921828655E+01 -4.33696113043E+01  5.65230051563E+01  8.06608821569E+01  1.46817165330E+00  0.0000E+00  9.0
        3    1    4    4  504    0  3.76160610118E+01 -4.00952616145E+01  2.09178056035E+01  5.88234021563E+01  2.00000000000E-01  0.0000E+00  9.0
  3000022    1    4    4    0    0 -2.78425889006E+01 -8.47935164718E+01  2.32206817733E+00  1.07566454775E+02  6.00000000000E+01  0.0000E+00  9.0
</event>
<event>
10    1   3.4312288E-02   4.7170000E+02  -1.0000000E+00   9.4140000E-02
       11   -1    0    0    0    0  0.00000000000E+00  0.00000000000E+00  2.36782658990E+02  2.36782658990E+02  0.00000000000E+00  0.0000E+00  9.0
      -11   -1    0    0    0    0  0.00000000000E+00  0.00000000000E+00 -2.34954920660E+02  2.34954920660E+02  0.00000000000E+00  0.0000E+00  9.0
  3000025    2    1    2    0    0 -6.93904537577E+01 -1.53948123091E+02 -3.83712166343E+01  2.35629305430E+02  1.59792864783E+02  8.4387E-14  9.0
 -3000025    2    1    2    0    0  6.93904537577E+01  1.53948123091E+02  4.01989549663E+01  2.36108274217E+02  1.60050309270E+02  1.7836E-12  9.0
        2    1    3    3  500    0 -3.48957834975E+01 -2.84197157575E+00 -2.74795570471E+01  4.45075114205E+01  3.00000000000E-03  0.0000E+00  9.0
       -1    1    3    3    0  500 -3.62966372541E+01 -1.11321241810E+02 -1.91156073206E+01  1.18639248237E+02  5.00000000000E-03  0.0000E+00  9.0
  3000022    1    3    3    0    0  1.80196699369E+00 -3.97849097052E+01  8.22394773366E+00  7.24825457722E+01  6.00000000000E+01  0.0000E+00  9.0
       -4    1    4    4    0  504  5.26822006958E+01  3.25990329197E+01 -4.44029875177E+00  6.21287614431E+01  1.46817165330E+00  0.0000E+00  9.0
        3    1    4    4  504    0 -1.01162211431E+01  9.22978211826E+01  7.66334247330E+00  9.31664775718E+01  2.00000000000E-01  0.0000E+00  9.0
  3000022    1    4    4    0    0  2.68244742051E+01  2.90512689899E+01  3.69759112449E+01  8.08130352028E+01  6.00000000000E+01  0.0000E+00  9.0
</event>
<event>
10    1   3.4312288E-02   4.7810000E+02  -1.0000000E+00   9.3990000E-02
       11   -1    0    0    0    0  0.00000000000E+00  0.00000000000E+00  2.30107446780E+02  2.30107446780E+02  0.00000000000E+00  0.0000E+00  9.0
      -11   -1    0    0    0    0  0.00000000000E+00  0.00000000000E+00 -2.48368026860E+02  2.48368026860E+02  0.00000000000E+00  0.0000E+00  9.0
  3000025    2    1    2    0    0 -8.79674864672E+01 -1.06820780733E+02 -1.20696820021E+02  2.43539434472E+02  1.59983673879E+02  9.3679E-13  9.0
 -3000025    2    1    2    0    0  8.79674864672E+01  1.06820780733E+02  1.02436239941E+02  2.34936039169E+02  1.59852436252E+02  2.8079E-13  9.0
        4    1    3    3  500    0 -1.84191914797E+01 -3.67633438583E+00 -4.79293734688E+01  5.14991496862E+01  1.46817165330E+00  0.0000E+00  9.0
       -3    1    3    3    0  500 -1.21425981810E+00 -6.14529909612E+01 -6.83241599143E+01  9.19030758624E+01  2.00000000000E-01  0.0000E+00  9.0
  3000022    1    3    3    0    0 -6.83340351691E+01 -4.16914553859E+01 -4.44328663693E+00  1.00137208923E+02  6.00000000000E+01  0.0000E+00  9.0
       -4    1    4    4    0  504  4.45230267733E+01  3.07537065571E+01  9.49475546139E+01  1.09294483096E+02  1.46817165330E+00  0.0000E+00  9.0
        3    1    4    4  504    0 -7.64894076599E+00  3.61921736709E+01  4.56197069184E+00  3.72723933556E+01  2.00000000000E-01  0.0000E+00  9.0
  3000022    1    4    4    0    0  5.10934004596E+01  3.98749005045E+01  2.92671463427E+00  8.83691627171E+01  6.00000000000E+01  0.0000E+00  9.0
</event>
<event>
10    1   3.4312288E-02   4.9440000E+02  -1.0000000E+00   9.3620000E-02
       11   -1    0    0    0    0  0.00000000000E+00  0.00000000000E+00  2.44446422410E+02  2.44446422410E+02  0.00000000000E+00  0.0000E+00  9.0
      -11   -1    0    0    0    0  0.00000000000E+00  0.00000000000E+00 -2.50000000000E+02  2.50000000000E+02  0.00000000000E+00  0.0000E+00  9.0
  3000025    2    1    2    0    0 -1.59031980518E+02 -9.83131353785E+01  2.09133114609E+01  2.46928615382E+02  1.59936647091E+02  4.8344E-12  9.0
 -3000025    2    1    2    0    0  1.59031980518E+02  9.83131353785E+01 -2.64668890519E+01  2.47517807026E+02  1.60024764220E+02  3.0703E-13  9.0
        2    1    3    3  500    0 -1.29894944616E+02 -7.61768792267E+01 -4.96930177537E+00  1.50666212320E+02  3.00000000000E-03  0.0000E+00  9.0
       -1    1    3    3    0  500 -8.61532349754E+00  1.47127235632E+01  1.37948100916E+01  2.19313666714E+01  5.00000000000E-03  0.0000E+00  9.0
  3000022    1    3    3    0    0 -2.05217124041E+01 -3.68489797150E+01  1.20878031444E+01  7.43310363905E+01  6.00000000000E+01  0.0000E+00  9.0
       -2    1    4    4    0  504  8.22632038015E+01  1.12630978974E+01 -1.01081616979E+00  8.30368221469E+01  3.00000000000E-03  0.0000E+00  9.0
        1    1    4    4  504    0  3.86856736678E+01  6.69890981743E+01 -4.31082746745E+01  8.85575744459E+01  5.00000000000E-03  0.0000E+00  9.0
  3000022    1    4    4    0    0  3.80831030487E+01  2.00609393068E+01  1.76522017930E+01  7.59234104333E+01  6.00000000000E+01  0.0000E+00  9.0
</event>
<event>
10    1   3.4312288E-02   4.9310000E+02  -1.0000000E+00   9.3650000E-02
       11   -1    0    0    0    0  0.00000000000E+00  0.00000000000E+00  2.43125680310E+02  2.43125680310E+02  0.00000000000E+00  0.0000E+00  9.0
      -11   -1    0    0    0    0  0.00000000000E+00  0.00000000000E+00 -2.50000000000E+02  2.50000000000E+02  0.00000000000E+00  0.0000E+00  9.0
  3000025    2    1    2    0    0  1.15054526223E+02 -1.13416817478E+02  9.18373836176E+01  2.45379417399E+02  1.60237433086E+02  1.5085E-12  9.0
 -3000025    2    1    2    0    0 -1.15054526223E+02  1.13416817478E+02 -9.87117033096E+01  2.47746262905E+02  1.59791401276E+02  3.3938E-14  9.0
        4    1    3    3  500    0  5.76748960882E-01  6.64332500533E+00 -1.35948175474E+01  1.52131850262E+01  1.46817165330E+00  0.0000E+00  9.0
       -3    1    3    3    0  500  7.92968154101E+01 -8.84011397004E+01  2.93447289356E+01  1.22327018891E+02  2.00000000000E-01  0.0000E+00  9.0
  3000022    1    3    3    0    0  3.51809618534E+01 -3.16590027848E+01  7.60874722303E+01  1.07839213483E+02  6.00000000000E+01  0.0000E+00  9.0
       -4    1    4    4    0  504 -2.00026287331E+01  7.88124341785E+01 -6.80058185041E+01  1.06011564538E+02  1.46817165330E+00  0.0000E+00  9.0
        3    1    4    4  504    0 -6.31340974397E+01  2.79165411850E+01 -2.41397587706E+01  7.31301270665E+01  2.00000000000E-01  0.0000E+00  9.0
  3000022    1    4    4    0    0 -3.19178000499E+01  6.68784211459E+00 -6.56612603555E+00  6.86045713002E+01  6.00000000000E+01  0.0000E+00  9.0
</event>
<event>
10    1   3.4312288E-02   4.4580000E+02  -1.0000000E+00   9.4780000E-02
       11   -1    0    0    0    0  0.00000000000E+00  0.00000000000E+00  2.01183946760E+02  2.01183946760E+02  0.00000000000E+00  0.0000E+00  9.0
      -11   -1    0    0    0    0  0.00000000000E+00  0.00000000000E+00 -2.46998894230E+02  2.46998894230E+02  0.00000000000E+00  0.0000E+00  9.0
  3000025    2    1    2    0    0 -1.53694769997E+02 -1.81809103948E+01 -1.38698935004E+01  2.23243692509E+02  1.60289564452E+02  3.1597E-13  9.0
 -3000025    2    1    2    0    0  1.53694769997E+02  1.81809103948E+01 -3.19450539746E+01  2.24939148480E+02  1.60076563613E+02  7.7574E-13  9.0
        4    1    3    3  500    0 -9.65184627540E+00  1.70216515838E+01 -2.26091160638E+01  2.99369740681E+01  1.46817165330E+00  0.0000E+00  9.0
       -3    1    3    3    0  500 -2.55226819275E+01 -5.10644190116E+01 -1.08034450887E+01  5.81010895556E+01  2.00000000000E-01  0.0000E+00  9.0
  3000022    1    3    3    0    0 -1.18520241794E+02  1.58618570320E+01  1.95426676526E+01  1.35205628886E+02  6.00000000000E+01  0.0000E+00  9.0
       -2    1    4    4    0  504 -2.48305589481E+00  3.53512926259E+01  5.52203280422E+00  3.58660328471E+01  3.00000000000E-03  0.0000E+00  9.0
        1    1    4    4  504    0  6.99703429380E+01 -1.61060145996E+01  1.22935997335E+01  7.28449395398E+01  5.00000000000E-03  0.0000E+00  9.0
  3000022    1    4    4    0    0  8.62074829538E+01 -1.06436763133E+00 -4.97606865124E+01  1.16228176093E+02  6.00000000000E+01  0.0000E+00  9.0
</event>
<event>
10    1   3.4312288E-02   4.9770000E+02  -1.0000000E+00   9.3540000E-02
       11   -1    0    0    0    0  0.00000000000E+00  0.00000000000E+00  2.47657745590E+02  2.47657745590E+02  0.00000000000E+00  0.0000E+00  9.0
      -11   -1    0    0    0    0  0.00000000000E+00  0.00000000000E+00 -2.49998565530E+02  2.49998565530E+02  0.00000000000E+00  0.0000E+00  9.0
  3000025    2    1    2    0    0 -7.53881309713E+01 -1.39154544981E+02 -1.07328278580E+02  2.49300575477E+02  1.59950179338E+02  2.7559E-12  9.0
 -3000025    2    1    2    0    0  7.53881309713E+01  1.39154544981E+02  1.04987458630E+02  2.48355735638E+02  1.60033894142E+02  2.3110E-12  9.0
        4    1    3    3  500    0 -8.02342201629E+01 -5.43088119157E+01 -5.74848512960E+01  1.12666058746E+02  1.46817165330E+00  0.0000E+00  9.0
       -3    1    3    3    0  500  7.59956802462E+00 -6.10675545617E+01 -3.32129018369E+01  6.99295109573E+01  2.00000000000E-01  0.0000E+00  9.0
  3000022    1    3    3    0    0 -2.75347883295E+00 -2.37781785037E+01 -1.66305254469E+01  6.67050057738E+01  6.00000000000E+01  0.0000E+00  9.0
       -4    1    4    4    0  504  6.27412984713E+01  5.10541674359E+01 -2.68679752676E+00  8.09467291210E+01  1.46817165330E+00  0.0000E+00  9.0
        3    1    4    4  504    0 -1.93795341650E+01  3.60770356895E+00  1.58580733684E+01  2.53002047512E+01  2.00000000000E-01  0.0000E+00  9.0
  3000022    1    4    4    0    0  3.20263666649E+01  8.44926739759E+01  9.18161827880E+01  1.42108801765E+02  6.00000000000E+01  0.0000E+00  9.0
</event>
<event>
10    1   3.4312288E-02   4.8260000E+02  -1.0000000E+00   9.3880000E-02
       11   -1    0    0    0    0  0.00000000000E+00  0.00000000000E+00  2.32887623270E+02  2.32887623270E+02  0.00000000000E+00  0.0000E+00  9.0
      -11   -1    0    0    0    0  0.00000000000E+00  0.00000000000E+00 -2.49999964490E+02  2.49999964490E+02  0.00000000000E+00  0.0000E+00  9.0
  3000025    2    1    2    0    0  3.23662152821E+01  1.76560707882E+02 -2.90274611463E+01  2.42215898851E+02  1.60014664003E+02  7.9885E-13  9.0
 -3000025    2    1    2    0    0 -3.23662152821E+01 -1.76560707882E+02  1.19151199253E+01  2.40671688914E+02  1.59873813686E+02  1.3521E-12  9.0
        4    1    3    3  500    0 -4.38174844482E+01  6.27470664423E+01  3.96725841014E+00  7.66489462274E+01  1.46817165330E+00  0.0000E+00  9.0
       -3    1    3    3    0  500  2.19332796353E+01  1.48100404326E+00 -1.34392886793E+01  2.57665792984E+01  2.00000000000E-01  0.0000E+00  9.0
  3000022    1    3    3    0    0  5.42504200960E+01  1.12332637397E+02 -1.95554308768E+01  1.39800373326E+02  6.00000000000E+01  0.0000E+00  9.0
       -2    1    4    4    0  504  3.21600399410E+01 -6.77074633079E+01  1.70483476823E+01  7.68714181233E+01  3.00000000000E-03  0.0000E+00  9.0
        1    1    4    4  504    0 -1.99172198801E+01 -3.30648670649E+01 -3.61797312011E+01  5.29051420616E+01  5.00000000000E-03  0.0000E+00  9.0
  3000022    1    4    4    0    0 -4.46090353431E+01 -7.57883775097E+01  3.10465034441E+01  1.10895128729E+02  6.00000000000E+01  0.0000E+00  9.0
</event>
<event>
10    1   3.4312288E-02   4.9410000E+02  -1.0000000E+00   9.3620000E-02
       11   -1    0    0    0    0  0.00000000000E+00  0.00000000000E+00  2.44139545380E+02  2.44139545380E+02  0.00000000000E+00  0.0000E+00  9.0
      -11   -1    0    0    0    0  0.00000000000E+00  0.00000000000E+00 -2.49999999780E+02  2.49999999780E+02  0.00000000000E+00  0.0000E+00  9.0
  3000025    2    1    2    0    0  1.76864425462E+02 -5.61373054225E+01  2.85005563487E+01  2.46656198350E+02  1.59983050410E+02  7.3276E-12  9.0
 -3000025    2    1    2    0    0 -1.76864425462E+02  5.61373054225E+01 -3.43610107577E+01  2.47483346813E+02  1.60109043578E+02  1.5460E-12  9.0
        2    1    3    3  500    0  3.52568703238E+01 -5.29808446521E+01 -6.05443257521E+00  6.39270910326E+01  3.00000000000E-03  0.0000E+00  9.0
       -1    1    3    3    0  500  8.06396992673E+01  1.52475936787E+01 -1.30816351018E+01  8.31046293106E+01  5.00000000000E-03  0.0000E+00  9.0
  3000022    1    3    3    0    0  6.09678558709E+01 -1.84040544490E+01  4.76366240256E+01  9.96244780072E+01  6.00000000000E+01  0.0000E+00  9.0
       -2    1    4    4    0  504 -3.05139210914E+01  3.91775666012E+01 -4.73843692079E+01  6.86386156576E+01  3.00000000000E-03  0.0000E+00  9.0
        1    1    4    4  504    0 -4.10349060734E+01 -2.72338894182E+01  8.35540812628E-01  4.92569426857E+01  5.00000000000E-03  0.0000E+00  9.0
  3000022    1    4    4    0    0 -1.05315598297E+02  4.41936282395E+01  1.21878176374E+01  1.29587788469E+02  6.00000000000E+01  0.0000E+00  9.0
</event>
<event>
10    1   3.4312288E-02   4.9970000E+02  -1.0000000E+00   9.3500000E-02
       11   -1    0    0    0    0  0.00000000000E+00  0.00000000000E+00  2.49982519980E+02  2.49982519980E+02  0.00000000000E+00  0.0000E+00  9.0
      -11   -1    0    0    0    0  0.00000000000E+00  0.00000000000E+00 -2.49679009940E+02  2.49679009940E+02  0.00000000000E+00  0.0000E+00  9.0
  3000025    2    1    2    0    0  1.86546107901E+02 -2.64497966338E+01  3.60444910570E+01  2.49814469125E+02  1.60028189809E+02  4.3996E-13  9.0
 -3000025    2    1    2    0    0 -1.86546107901E+02  2.64497966338E+01 -3.57409810080E+01  2.49847060792E+02  1.60147100967E+02  1.0397E-12  9.0
       14    1    3    3    0    0  1.30966387497E+01  1.39090668865E+01  3.02172159959E+01  3.57500242061E+01  0.00000000000E+00  0.0000E+00  9.0
      -13    1    3    3    0    0  5.15148169350E+01 -5.39034989081E+01 -1.45925182421E+01  7.59757613948E+01  1.05700000000E-01  0.0000E+00  9.0
  3000022    1    3    3    0    0  1.21934652216E+02  1.35446353878E+01  2.04197933033E+01  1.38088683524E+02  6.00000000000E+01  0.0000E+00  9.0
      -14    1    4    4    0    0  1.33439739962E+01 -1.90455971867E+01 -9.53368317892E+00  2.51333947004E+01  0.00000000000E+00  0.0000E+00  9.0
       13    1    4    4    0    0 -7.71171156868E+01 -2.10667252886E+00  2.51508959263E+00  7.71869448103E+01  1.05700000000E-01  0.0000E+00  9.0
  3000022    1    4    4    0    0 -1.22772966211E+02  4.76020663493E+01 -2.87223874221E+01  1.47526721282E+02  6.00000000000E+01  0.0000E+00  9.0
</event>
<event>
10    1   3.4312288E-02   4.9820000E+02  -1.0000000E+00   9.3530000E-02
       11   -1    0    0    0    0  0.00000000000E+00  0.00000000000E+00  2.49950833230E+02  2.49950833230E+02  0.00000000000E+00  0.0000E+00  9.0
      -11   -1    0    0    0    0  0.00000000000E+00  0.00000000000E+00 -2.48220991030E+02  2.48220991030E+02  0.00000000000E+00  0.0000E+00  9.0
  3000025    2    1    2    0    0  1.37545736615E+02  1.30597445582E+02 -1.99880574353E+01  2.48958915191E+02  1.60020300461E+02  1.4145E-12  9.0
 -3000025    2    1    2    0    0 -1.37545736615E+02 -1.30597445582E+02  2.17178996343E+01  2.49212909065E+02  1.60190150841E+02  2.7372E-13  9.0
        2    1    3    3  500    0  1.78880500125E+01 -1.26510013276E+01 -2.59971818832E+01  3.39982888202E+01  3.00000000000E-03  0.0000E+00  9.0
       -1    1    3    3    0  500  9.21706330360E+01  8.07864473485E+01 -8.86119272858E+00  1.22883670319E+02  5.00000000000E-03  0.0000E+00  9.0
  3000022    1    3    3    0    0  2.74870535668E+01  6.24619995599E+01  1.48703171768E+01  9.20769560516E+01  6.00000000000E+01  0.0000E+00  9.0
       -2    1    4    4    0  504  2.52845710775E+00 -1.97627415140E+01  3.41391820377E+01  3.95277473010E+01  3.00000000000E-03  0.0000E+00  9.0
        1    1    4    4  504    0 -9.98892570444E+01 -5.77719463167E+01  1.40483928531E+01  1.16244650719E+02  5.00000000000E-03  0.0000E+00  9.0
  3000022    1    4    4    0    0 -4.01849366786E+01 -5.30627577512E+01 -2.64696752571E+01  9.34405110444E+01  6.00000000000E+01  0.0000E+00  9.0
</event>
<event>
10    1   3.4312288E-02   5.0000000E+02  -1.0000000E+00   9.3490000E-02
       11   -1    0    0    0    0  0.00000000000E+00  0.00000000000E+00  2.50000000000E+02  2.50000000000E+02  0.00000000000E+00  0.0000E+00  9.0
      -11   -1    0    0    0    0  0.00000000000E+00  0.00000000000E+00 -2.50000000000E+02  2.50000000000E+02  0.00000000000E+00  0.0000E+00  9.0
  3000025    2    1    2    0    0 -1.48052375486E+02 -1.18451762864E+02 -3.06731214502E+01  2.49985659298E+02  1.60005198237E+02  8.1627E-13  9.0
 -3000025    2    1    2    0    0  1.48052375486E+02  1.18451762864E+02  3.06731214502E+01  2.50014340698E+02  1.60050005194E+02  9.3454E-13  9.0
        2    1    3    3  500    0 -3.51689816204E+01  1.18212351523E+01  1.60007383242E+01  4.04057236622E+01  3.00000000000E-03  0.0000E+00  9.0
       -1    1    3    3    0  500 -7.17691657928E+00 -6.46379029498E+01 -4.69096931173E+00  6.52040784569E+01  5.00000000000E-03  0.0000E+00  9.0
  3000022    1    3    3    0    0 -1.05706477287E+02 -6.56350950669E+01 -4.19828904634E+01  1.44375857180E+02  6.00000000000E+01  0.0000E+00  9.0
       -4    1    4    4    0  504  4.68588308419E+01  2.39762943533E+01 -3.79109567453E+01  6.48845812819E+01  1.46817165330E+00  0.0000E+00  9.0
        3    1    4    4  504    0  8.00411200288E+01  5.23890273555E+01  3.93592015100E+01  1.03442630604E+02  2.00000000000E-01  0.0000E+00  9.0
  3000022    1    4    4    0    0  2.11524246143E+01  4.20864411548E+01  2.92248766864E+01  8.16871288116E+01  6.00000000000E+01  0.0000E+00  9.0
</event>
<event>
10    1   3.4312288E-02   5.0000000E+02  -1.0000000E+00   9.3490000E-02
       11   -1    0    0    0    0  0.00000000000E+00  0.00000000000E+00  2.49999998870E+02  2.49999998870E+02  0.00000000000E+00  0.0000E+00  9.0
      -11   -1    0    0    0    0  0.00000000000E+00  0.00000000000E+00 -2.50000000000E+02  2.50000000000E+02  0.00000000000E+00  0.0000E+00  9.0
  3000025    2    1    2    0    0 -7.52801039282E+01 -1.38268659695E+02  1.09829405142E+02  2.50061040201E+02  1.60258258106E+02  5.2114E-13  9.0
 -3000025    2    1    2    0    0  7.52801039282E+01  1.38268659695E+02 -1.09829406272E+02  2.49938958666E+02  1.60067699039E+02  6.8324E-13  9.0
        2    1    3    3  500    0 -7.88769477443E+01 -5.35420272862E+01  6.92009014275E+01  1.17801045576E+02  3.00000000000E-03  0.0000E+00  9.0
       -1    1    3    3    0  500  9.11711153618E+00 -3.11875545776E+00 -1.40377683545E+01  1.70266650799E+01  5.00000000000E-03  0.0000E+00  9.0
  3000022    1    3    3    0    0 -5.52026772012E+00 -8.16078769519E+01  5.46662720689E+01  1.15233329546E+02  6.00000000000E+01  0.0000E+00  9.0
      -14    1    4    4    0    0  5.26669348532E+01 -5.90313000076E+00 -5.32109714229E+01  7.51003358874E+01  0.00000000000E+00  0.0000E+00  9.0
       13    1    4    4    0    0 -7.81319121858E+00  3.69458605841E+01 -4.82646575714E+00  3.80703101578E+01  1.05700000000E-01  0.0000E+00  9.0
  3000022    1    4    4    0    0  3.04263602933E+01  1.07225929112E+02 -5.17919690919E+01  1.36768312620E+02  6.00000000000E+01  0.0000E+00  9.0
</event>
<event>
10    1   3.4312288E-02   4.9240000E+02  -1.0000000E+00   9.3660000E-02
       11   -1    0    0    0    0  0.00000000000E+00  0.00000000000E+00  2.45110168990E+02  2.45110168990E+02  0.00000000000E+00  0.0000E+00  9.0
      -11   -1    0    0    0    0  0.00000000000E+00  0.00000000000E+00 -2.47341160210E+02  2.47341160210E+02  0.00000000000E+00  0.0000E+00  9.0
  3000025    2    1    2    0    0  2.90211060202E+01 -1.82726865267E+02  2.68620355678E+01  2.46092204393E+02  1.60026473507E+02  7.6681E-13  9.0
 -3000025    2    1    2    0    0 -2.90211060202E+01  1.82726865267E+02 -2.90930267848E+01  2.46359124799E+02  1.60047125184E+02  8.0631E-14  9.0
        2    1    3    3  500    0  1.55985552476E+01 -4.00743604553E+01  4.15529081837E+01  5.97989421247E+01  3.00000000000E-03  0.0000E+00  9.0
       -1    1    3    3    0  500 -2.02299784290E+01 -1.58617945238E+01 -3.19560198415E+01  4.10126295409E+01  5.00000000000E-03  0.0000E+00  9.0
  3000022    1    3    3    0    0  3.36525292015E+01 -1.26790710288E+02  1.72651472253E+01  1.45280632727E+02  6.00000000000E+01  0.0000E+00  9.0
       -4    1    4    4    0  504  5.38462784702E+00  6.73409097643E+01 -1.60262127265E+00  6.75908001720E+01  1.46817165330E+00  0.0000E+00  9.0
        3    1    4    4  504    0 -1.55216084675E+01 -2.11827192999E+01 -5.09785089922E+00  2.67517477961E+01  2.00000000000E-01  0.0000E+00  9.0
  3000022    1    4    4    0    0 -1.88841253998E+01  1.36568674803E+02 -2.23925546130E+01  1.52016576831E+02  6.00000000000E+01  0.0000E+00  9.0
</event>
<event>
10    1   3.4312288E-02   5.0000000E+02  -1.0000000E+00   9.3490000E-02
       11   -1    0    0    0    0  0.00000000000E+00  0.00000000000E+00  2.49990169230E+02  2.49990169230E+02  0.00000000000E+00  0.0000E+00  9.0
      -11   -1    0    0    0    0  0.00000000000E+00  0.00000000000E+00 -2.50000000000E+02  2.50000000000E+02  0.00000000000E+00  0.0000E+00  9.0
  3000025    2    1    2    0    0  1.02423708933E+02  1.62484053706E+02 -5.08657745046E-01  2.50040985868E+02  1.60089200200E+02  1.9013E-12  9.0
 -3000025    2    1    2    0    0 -1.02423708933E+02 -1.62484053706E+02  4.98826974856E-01  2.49949183368E+02  1.59945808254E+02  2.2128E-13  9.0
        4    1    3    3  500    0  7.67476621063E+01  6.45605666104E+01 -6.73528111900E+00  1.00527558110E+02  1.46817165330E+00  0.0000E+00  9.0
       -3    1    3    3    0  500  3.37898111907E+00  3.31325976431E+00  3.20531620315E+01  3.24012407152E+01  2.00000000000E-01  0.0000E+00  9.0
  3000022    1    3    3    0    0  2.22970657078E+01  9.46102273306E+01 -2.58265386580E+01  1.17112187042E+02  6.00000000000E+01  0.0000E+00  9.0
       -2    1    4    4    0  504 -5.41800609651E+01 -1.75713366846E+01 -1.25771039152E+01  5.83302188489E+01  3.00000000000E-03  0.0000E+00  9.0
        1    1    4    4  504    0 -2.10935263615E+01 -7.02336757540E+01  4.62136922868E+01  8.66799368024E+01  5.00000000000E-03  0.0000E+00  9.0
  3000022    1    4    4    0    0 -2.71501216066E+01 -7.46790412671E+01 -3.31377613967E+01  1.04939027717E+02  6.00000000000E+01  0.0000E+00  9.0
</event>
<event>
10    1   3.4312288E-02   4.9930000E+02  -1.0000000E+00   9.3510000E-02
       11   -1    0    0    0    0  0.00000000000E+00  0.00000000000E+00  2.49405481270E+02  2.49405481270E+02  0.00000000000E+00  0.0000E+00  9.0
      -11   -1    0    0    0    0  0.00000000000E+00  0.00000000000E+00 -2.49941766630E+02  2.49941766630E+02  0.00000000000E+00  0.0000E+00  9.0
  3000025    2    1    2    0    0 -1.16647798517E+02  6.73051376028E+01  1.35906546471E+02  2.49416123940E+02  1.60003509527E+02  1.3308E-12  9.0
 -3000025    2    1    2    0    0  1.16647798517E+02 -6.73051376028E+01 -1.36442831831E+02  2.49931123963E+02  1.60350334957E+02  1.1288E-12  9.0
        2    1    3    3  500    0  1.02196959391E+01 -3.53535940616E+00 -9.91345057111E+00  1.46702918323E+01  3.00000000000E-03  0.0000E+00  9.0
       -1    1    3    3    0  500 -3.70177195644E+01  6.15053804016E+01  8.17270569758E+01  1.08777457440E+02  5.00000000000E-03  0.0000E+00  9.0
  3000022    1    3    3    0    0 -8.98497748921E+01  9.33511660738E+00  6.40929400660E+01  1.25968374668E+02  6.00000000000E+01  0.0000E+00  9.0
       -2    1    4    4    0  504 -1.38373389194E+01 -3.78808487533E+01 -5.57478673698E+01  6.88059254420E+01  3.00000000000E-03  0.0000E+00  9.0
        1    1    4    4  504    0  2.52888130803E+01  1.90557371762E+01 -1.74499223503E+01  3.61544603247E+01  5.00000000000E-03  0.0000E+00  9.0
  3000022    1    4    4    0    0  1.05196324356E+02 -4.84800260256E+01 -6.32450421103E+01  1.44970738196E+02  6.00000000000E+01  0.0000E+00  9.0
</event>
<event>
10    1   3.4312288E-02   4.9990000E+02  -1.0000000E+00   9.3490000E-02
       11   -1    0    0    0    0  0.00000000000E+00  0.00000000000E+00  2.49999999100E+02  2.49999999100E+02  0.00000000000E+00  0.0000E+00  9.0
      -11   -1    0    0    0    0  0.00000000000E+00  0.00000000000E+00 -2.49914025490E+02  2.49914025490E+02  0.00000000000E+00  0.0000E+00  9.0
  3000025    2    1    2    0    0 -1.51481248755E+02  1.12030991901E+02 -3.72477183598E+01  2.49905985256E+02  1.59900272273E+02  8.9499E-13  9.0
 -3000025    2    1    2    0    0  1.51481248755E+02 -1.12030991901E+02  3.73336919698E+01  2.50008039330E+02  1.60039692898E+02  1.1742E-12  9.0
        4    1    3    3  500    0 -2.88516803371E+01  4.73753269278E+01 -2.57723801323E+01  6.11817960302E+01  1.46817165330E+00  0.0000E+00  9.0
       -3    1    3    3    0  500 -7.17135139923E+01 -1.83195762397E+01 -4.94321374855E+00  7.41816036824E+01  2.00000000000E-01  0.0000E+00  9.0
  3000022    1    3    3    0    0 -5.09160544249E+01  8.29752412133E+01 -6.53212447859E+00  1.14542585543E+02  6.00000000000E+01  0.0000E+00  9.0
       -2    1    4    4    0  504  1.01896588440E+02 -1.05650337093E+02  2.12185901147E+01  1.48307575798E+02  3.00000000000E-03  0.0000E+00  9.0
        1    1    4    4  504    0  3.34996564683E+01  1.20811207689E+01  5.73263484596E+00  3.60699818382E+01  5.00000000000E-03  0.0000E+00  9.0
  3000022    1    4    4    0    0  1.60850038466E+01 -1.84617755783E+01  1.03824670092E+01  6.56304816944E+01  6.00000000000E+01  0.0000E+00  9.0
</event>
<event>
10    1   3.4312288E-02   4.9890000E+02  -1.0000000E+00   9.3510000E-02
       11   -1    0    0    0    0  0.00000000000E+00  0.00000000000E+00  2.50000000000E+02  2.50000000000E+02  0.00000000000E+00  0.0000E+00  9.0
      -11   -1    0    0    0    0  0.00000000000E+00  0.00000000000E+00 -2.48914213290E+02  2.48914213290E+02  0.00000000000E+00  0.0000E+00  9.0
  3000025    2    1    2    0    0  1.86743098232E+02  3.37977459956E+00 -4.08719349763E+01  2.49362969251E+02  1.60084252040E+02  1.6136E-12  9.0
 -3000025    2    1    2    0    0 -1.86743098232E+02 -3.37977459956E+00  4.19577216813E+01  2.49551244048E+02  1.60096737580E+02  4.6364E-12  9.0
        2    1    3    3  500    0  1.19715484127E+02 -3.36909668743E+01 -3.40306177546E+01  1.28937819675E+02  3.00000000000E-03  0.0000E+00  9.0
       -1    1    3    3    0  500  3.14079485056E+00  1.74533231931E+01 -2.31312529111E+01  2.91468346311E+01  5.00000000000E-03  0.0000E+00  9.0
  3000022    1    3    3    0    0  6.38868192544E+01  1.96174182808E+01  1.62899356894E+01  9.12783149451E+01  6.00000000000E+01  0.0000E+00  9.0
       -4    1    4    4    0  504 -2.60920180955E+01 -3.66468599070E+01  7.43775218178E-01  4.50166022587E+01  1.46817165330E+00  0.0000E+00  9.0
        3    1    4    4  504    0 -3.63809293533E+01  4.17311212241E+01 -1.15448405575E+01  5.65542380615E+01  2.00000000000E-01  0.0000E+00  9.0
  3000022    1    4    4    0    0 -1.24270150783E+02 -8.46403591706E+00  5.27587870200E+01  1.47980403728E+02  6.00000000000E+01  0.0000E+00  9.0
</event>
<event>
10    1   3.4312288E-02   5.0000000E+02  -1.0000000E+00   9.3490000E-02
       11   -1    0    0    0    0  0.00000000000E+00  0.00000000000E+00  2.49953614810E+02  2.49953614810E+02  0.00000000000E+00  0.0000E+00  9.0
      -11   -1    0    0    0    0  0.00000000000E+00  0.00000000000E+00 -2.50000000000E+02  2.50000000000E+02  0.00000000000E+00  0.0000E+00  9.0
  3000025    2    1    2    0    0  8.48173653166E+01  1.17042350882E+02  1.26798932726E+02  2.49742177935E+02  1.59374680360E+02  4.4567E-13  9.0
 -3000025    2    1    2    0    0 -8.48173653166E+01 -1.17042350882E+02 -1.26845317926E+02  2.50211436873E+02  1.60072268376E+02  8.8069E-13  9.0
        4    1    3    3  500    0  1.94186875555E+01  5.16239182254E+01  5.56452912963E+00  5.54547912426E+01  1.46817165330E+00  0.0000E+00  9.0
       -3    1    3    3    0  500  3.91052114537E+01  4.24412900279E+01  1.09645149448E+02  1.23905526347E+02  2.00000000000E-01  0.0000E+00  9.0
  3000022    1    3    3    0    0  2.62934663075E+01  2.29771426285E+01  1.15892541488E+01  7.03818603445E+01  6.00000000000E+01  0.0000E+00  9.0
       -4    1    4    4    0  504 -5.40729355845E+01 -4.43051989320E+01 -8.92567000838E+01  1.13383186818E+02  1.46817165330E+00  0.0000E+00  9.0
        3    1    4    4  504    0  2.84975901935E+00  1.65239318079E+01  3.05496394935E+00  1.70450653736E+01  2.00000000000E-01  0.0000E+00  9.0
  3000022    1    4    4    0    0 -3.35941887510E+01 -8.92610837587E+01 -4.06435817916E+01  1.19783184682E+02  6.00000000000E+01  0.0000E+00  9.0
</event>
<event>
10    1   3.4312288E-02   5.0000000E+02  -1.0000000E+00   9.3490000E-02
       11   -1    0    0    0    0  0.00000000000E+00  0.00000000000E+00  2.49987210570E+02  2.49987210570E+02  0.00000000000E+00  0.0000E+00  9.0
      -11   -1    0    0    0    0  0.00000000000E+00  0.00000000000E+00 -2.49999998520E+02  2.49999998520E+02  0.00000000000E+00  0.0000E+00  9.0
  3000025    2    1    2    0    0 -9.28481245573E+01  1.67808879933E+02  1.02312655005E+01  2.50056553449E+02  1.60134339575E+02  3.5077E-13  9.0
 -3000025    2    1    2    0    0  9.28481245573E+01 -1.67808879933E+02 -1.02440534495E+01  2.49930655630E+02  1.59936854961E+02  4.1711E-13  9.0
        2    1    3    3  500    0 -1.13080669690E+01  1.92273196697E+01  4.71417990975E+01  5.21527701221E+01  3.00000000000E-03  0.0000E+00  9.0
       -1    1    3    3    0  500 -3.88476493799E+01  9.09333912892E+01 -4.71137289027E+00  9.89960533214E+01  5.00000000000E-03  0.0000E+00  9.0
  3000022    1    3    3    0    0 -4.26924082078E+01  5.76481689739E+01 -3.21991607066E+01  9.89077300054E+01  6.00000000000E+01  0.0000E+00  9.0
       -2    1    4    4    0  504 -1.22355264287E+01 -5.73198355483E+01 -3.29715329685E+01  6.72487445947E+01  3.00000000000E-03  0.0000E+00  9.0
        1    1    4    4  504    0  3.58620242320E+01 -6.57181022129E+01  2.95633391646E+01  8.04918926852E+01  5.00000000000E-03  0.0000E+00  9.0
  3000022    1    4    4    0    0  6.92216267538E+01 -4.47709421717E+01 -6.83585964553E+00  1.02190018350E+02  6.00000000000E+01  0.0000E+00  9.0
</event>
<event>
10    1   3.4312288E-02   4.7990000E+02  -1.0000000E+00   9.3950000E-02
       11   -1    0    0    0    0  0.00000000000E+00  0.00000000000E+00  2.44769974190E+02  2.44769974190E+02  0.00000000000E+00  0.0000E+00  9.0
      -11   -1    0    0    0    0  0.00000000000E+00  0.00000000000E+00 -2.35257673520E+02  2.35257673520E+02  0.00000000000E+00  0.0000E+00  9.0
  3000025    2    1    2    0    0  1.30235721185E+02 -9.97384331168E+01  7.77427101108E+01  2.40913955155E+02  1.58387204975E+02  1.6262E-12  9.0
 -3000025    2    1    2    0    0 -1.30235721185E+02  9.97384331168E+01 -6.82304094448E+01  2.39113692556E+02  1.60033968524E+02  6.3935E-14  9.0
        4    1    3    3  500    0  8.50189982515E+01 -6.13015088389E+01  2.38217901530E+01  1.07497619805E+02  1.46817165330E+00  0.0000E+00  9.0
       -3    1    3    3    0  500  1.36308020879E+01 -4.67808395356E+00  5.58167130381E+01  5.76474517166E+01  2.00000000000E-01  0.0000E+00  9.0
  3000022    1    3    3    0    0  3.15859208467E+01 -3.37588403244E+01 -1.89579307993E+00  7.57688836343E+01  6.00000000000E+01  0.0000E+00  9.0
       -2    1    4    4    0  504  8.99935654590E-01  3.51457056815E+01 -7.97773587529E-01  3.51662759434E+01  3.00000000000E-03  0.0000E+00  9.0
        1    1    4    4  504    0 -1.01690744714E+02  7.19341627309E+01 -3.55589212764E+01  1.29537516711E+02  5.00000000000E-03  0.0000E+00  9.0
  3000022    1    4    4    0    0 -2.94449121260E+01 -7.34143529438E+00 -3.18737145814E+01  7.44098999026E+01  6.00000000000E+01  0.0000E+00  9.0
</event>
<event>
10    1   3.4312288E-02   4.9970000E+02  -1.0000000E+00   9.3500000E-02
       11   -1    0    0    0    0  0.00000000000E+00  0.00000000000E+00  2.49984768730E+02  2.49984768730E+02  0.00000000000E+00  0.0000E+00  9.0
      -11   -1    0    0    0    0  0.00000000000E+00  0.00000000000E+00 -2.49680308900E+02  2.49680308900E+02  0.00000000000E+00  0.0000E+00  9.0
  3000025    2    1    2    0    0  1.67698112856E+02  2.71363149783E+01  8.96189029000E+01  2.49927064067E+02  1.59915455632E+02  2.8840E-13  9.0
 -3000025    2    1    2    0    0 -1.67698112856E+02 -2.71363149783E+01 -8.93144430740E+01  2.49738013558E+02  1.59790390913E+02  4.1726E-12  9.0
        2    1    3    3  500    0  5.21061477500E+01  1.69997192009E+01 -1.54242901902E+01  5.69381227573E+01  3.00000000000E-03  0.0000E+00  9.0
       -1    1    3    3    0  500  7.71063149481E+01  3.05900322654E+01  7.85446089123E+01  1.14238301340E+02  5.00000000000E-03  0.0000E+00  9.0
  3000022    1    3    3    0    0  3.84856501595E+01 -2.04534364880E+01  2.64985841781E+01  7.87506399708E+01  6.00000000000E+01  0.0000E+00  9.0
      -14    1    4    4    0    0 -7.48176018225E+01  1.36129705167E+01  5.21337563507E+00  7.62244435484E+01  0.00000000000E+00  0.0000E+00  9.0
       13    1    4    4    0    0 -5.82746890828E+00  1.11433600947E+01 -4.32823379181E+01  4.50722288802E+01  1.05700000000E-01  0.0000E+00  9.0
  3000022    1    4    4    0    0 -8.70530421254E+01 -5.18926455897E+01 -5.12454807916E+01  1.28441341130E+02  6.00000000000E+01  0.0000E+00  9.0
</event>
<event>
10    1   3.4312288E-02   4.7370000E+02  -1.0000000E+00   9.4090000E-02
       11   -1    0    0    0    0  0.00000000000E+00  0.00000000000E+00  2.34097426780E+02  2.34097426780E+02  0.00000000000E+00  0.0000E+00  9.0
      -11   -1    0    0    0    0  0.00000000000E+00  0.00000000000E+00 -2.39623498450E+02  2.39623498450E+02  0.00000000000E+00  0.0000E+00  9.0
  3000025    2    1    2    0    0 -9.13822105402E+01 -9.43668492519E+01  1.12583077064E+02  2.35598432369E+02  1.59924549250E+02  2.7530E-12  9.0
 -3000025    2    1    2    0    0  9.13822105402E+01  9.43668492519E+01 -1.18109148734E+02  2.38122492858E+02  1.59676986286E+02  6.1087E-14  9.0
        2    1    3    3  500    0 -1.95355102321E+00  1.08733374164E+01  5.28665475744E+01  5.40084964576E+01  3.00000000000E-03  0.0000E+00  9.0
       -1    1    3    3    0  500 -2.36708293193E+01  9.86945268173E+00  1.30551336915E+01  2.87776093100E+01  5.00000000000E-03  0.0000E+00  9.0
  3000022    1    3    3    0    0 -6.57578301977E+01 -1.15109639350E+02  4.66613957980E+01  1.52812326602E+02  6.00000000000E+01  0.0000E+00  9.0
       -2    1    4    4    0  504  1.86408225478E+01 -4.44357678800E-01 -4.17732801642E+01  4.57458704549E+01  3.00000000000E-03  0.0000E+00  9.0
        1    1    4    4  504    0 -2.81972180554E+01  3.42187396655E+01 -2.21070982416E+01  4.95452224541E+01  5.00000000000E-03  0.0000E+00  9.0
  3000022    1    4    4    0    0  1.00938606048E+02  6.05924672651E+01 -5.42287703290E+01  1.42831399949E+02  6.00000000000E+01  0.0000E+00  9.0
</event>
<event>
10    1   3.4312288E-02   4.5730000E+02  -1.0000000E+00   9.4490000E-02
       11   -1    0    0    0    0  0.00000000000E+00  0.00000000000E+00  2.13437436210E+02  2.13437436210E+02  0.00000000000E+00  0.0000E+00  9.0
      -11   -1    0    0    0    0  0.00000000000E+00  0.00000000000E+00 -2.44998754450E+02  2.44998754450E+02  0.00000000000E+00  0.0000E+00  9.0
  3000025    2    1    2    0    0 -5.49504321721E+00 -1.63293546247E+02 -1.28594142497E+01  2.29014754809E+02  1.59960669039E+02  2.2750E-12  9.0
 -3000025    2    1    2    0    0  5.49504321721E+00  1.63293546247E+02 -1.87019039823E+01  2.29421435854E+02  1.59967047453E+02  6.5004E-13  9.0
        2    1    3    3  500    0  1.95478203313E+01 -2.15092579131E+01 -5.00609994166E+01  5.78866921430E+01  3.00000000000E-03  0.0000E+00  9.0
       -1    1    3    3    0  500  6.14480498887E+00 -4.28639535332E+01  2.66364062164E+01  5.08387185320E+01  5.00000000000E-03  0.0000E+00  9.0
  3000022    1    3    3    0    0 -3.11876685373E+01 -9.89203348007E+01  1.05651789505E+01  1.20289344134E+02  6.00000000000E+01  0.0000E+00  9.0
       -2    1    4    4    0  504 -2.94930743344E+01  1.51314500429E+01 -3.34948267637E+01  4.71243635821E+01  3.00000000000E-03  0.0000E+00  9.0
        1    1    4    4  504    0  3.85848048145E+01  2.94837435963E+01  6.68879082930E+00  4.90185500274E+01  5.00000000000E-03  0.0000E+00  9.0
  3000022    1    4    4    0    0 -3.59668726346E+00  1.18678352608E+02  8.10413195202E+00  1.33278522244E+02  6.00000000000E+01  0.0000E+00  9.0
</event>
<event>
10    1   3.4312288E-02   4.9070000E+02  -1.0000000E+00   9.3700000E-02
       11   -1    0    0    0    0  0.00000000000E+00  0.00000000000E+00  2.47478544090E+02  2.47478544090E+02  0.00000000000E+00  0.0000E+00  9.0
      -11   -1    0    0    0    0  0.00000000000E+00  0.00000000000E+00 -2.43191044600E+02  2.43191044600E+02  0.00000000000E+00  0.0000E+00  9.0
  3000025    2    1    2    0    0 -1.79375498277E+02 -4.32433478904E+01  2.35785228204E+01  2.45392681472E+02  1.60050194823E+02  6.7364E-13  9.0
 -3000025    2    1    2    0    0  1.79375498277E+02  4.32433478904E+01 -1.92910233364E+01  2.45276907211E+02  1.60446443122E+02  5.0637E-12  9.0
        2    1    3    3  500    0 -1.04711630443E+02 -1.34906871485E+01  1.03486640399E+01  1.06083076153E+02  3.00000000000E-03  0.0000E+00  9.0
       -1    1    3    3    0  500 -4.00852380256E+00  2.73925161125E+01 -6.99439897090E+00  2.85541563351E+01  5.00000000000E-03  0.0000E+00  9.0
  3000022    1    3    3    0    0 -7.06553440319E+01 -5.71451768549E+01  2.02242577511E+01  1.10755448984E+02  6.00000000000E+01  0.0000E+00  9.0
       -4    1    4    4    0  504  7.33812163965E+01 -3.37083344111E+01 -3.25095842532E+01  8.70636739687E+01  1.46817165330E+00  0.0000E+00  9.0
        3    1    4    4  504    0  6.27200997863E+01  3.37898590089E+01  1.37777880807E+01  7.25633029392E+01  2.00000000000E-01  0.0000E+00  9.0
  3000022    1    4    4    0    0  4.32741820939E+01  4.31618232926E+01 -5.59227163056E-01  8.56499303027E+01  6.00000000000E+01  0.0000E+00  9.0
</event>
<event>
10    1   3.4312288E-02   4.7390000E+02  -1.0000000E+00   9.4090000E-02
       11   -1    0    0    0    0  0.00000000000E+00  0.00000000000E+00  2.26343675820E+02  2.26343675820E+02  0.00000000000E+00  0.0000E+00  9.0
      -11   -1    0    0    0    0  0.00000000000E+00  0.00000000000E+00 -2.48030923460E+02  2.48030923460E+02  0.00000000000E+00  0.0000E+00  9.0
  3000025    2    1    2    0    0  1.69000735824E+02  4.42481606525E+01 -5.05361450733E+00  2.37031587486E+02  1.60122721737E+02  9.1458E-13  9.0
 -3000025    2    1    2    0    0 -1.69000735824E+02 -4.42481606525E+01 -1.66336331240E+01  2.37343011791E+02  1.59799496448E+02  4.4009E-13  9.0
        4    1    3    3  500    0 -6.61444181010E+00  7.28418771165E+00 -1.90431469525E+01  2.14850460772E+01  1.46817165330E+00  0.0000E+00  9.0
       -3    1    3    3    0  500  1.12557743770E+02  5.61357806296E+01  1.25830731226E+01  1.26407457370E+02  2.00000000000E-01  0.0000E+00  9.0
  3000022    1    3    3    0    0  6.30574338638E+01 -1.91718076886E+01  1.40645932220E+00  8.91390840393E+01  6.00000000000E+01  0.0000E+00  9.0
       -4    1    4    4    0  504 -3.78700334050E+01  4.37962283710E+01 -1.46471321317E+01  5.97406315442E+01  1.46817165330E+00  0.0000E+00  9.0
        3    1    4    4  504    0 -7.01669759651E+00 -2.46215996513E+01  2.97981961750E+00  2.57755027013E+01  2.00000000000E-01  0.0000E+00  9.0
  3000022    1    4    4    0    0 -1.24114004821E+02 -6.34227893720E+01 -4.96632060959E+00  1.51826877544E+02  6.00000000000E+01  0.0000E+00  9.0
</event>
<event>
10    1   3.4312288E-02   4.9910000E+02  -1.0000000E+00   9.3510000E-02
       11   -1    0    0    0    0  0.00000000000E+00  0.00000000000E+00  2.49084723040E+02  2.49084723040E+02  0.00000000000E+00  0.0000E+00  9.0
      -11   -1    0    0    0    0  0.00000000000E+00  0.00000000000E+00 -2.49999992840E+02  2.49999992840E+02  0.00000000000E+00  0.0000E+00  9.0
  3000025    2    1    2    0    0 -9.93828550258E+01 -1.22660767457E+02 -1.08865463461E+02  2.49782893474E+02  1.60053706585E+02  4.1264E-12  9.0
 -3000025    2    1    2    0    0  9.93828550258E+01  1.22660767457E+02  1.07950193651E+02  2.49301822406E+02  1.59923539854E+02  2.2101E-13  9.0
        2    1    3    3  500    0 -6.32762152615E+01 -3.29302853635E+01 -5.60846278564E+01  9.07401157302E+01  3.00000000000E-03  0.0000E+00  9.0
       -1    1    3    3    0  500  1.41756037434E+01  1.12911948159E+01  4.97756178820E+00  1.87940141592E+01  5.00000000000E-03  0.0000E+00  9.0
  3000022    1    3    3    0    0 -5.02822435082E+01 -1.01021676910E+02 -5.77583973916E+01  1.40248763585E+02  6.00000000000E+01  0.0000E+00  9.0
       -2    1    4    4    0  504  1.31440511282E+00  1.26847212232E+01  6.08745331072E+01  6.21959693496E+01  3.00000000000E-03  0.0000E+00  9.0
        1    1    4    4  504    0  4.53707420763E+01  8.59850384502E+01  3.21440020318E+01  1.02397109166E+02  5.00000000000E-03  0.0000E+00  9.0
  3000022    1    4    4    0    0  5.26977078362E+01  2.39910077832E+01  1.49316585122E+01  8.47087438909E+01  6.00000000000E+01  0.0000E+00  9.0
</event>
<event>
10    1   3.4312288E-02   3.5120000E+02  -1.0000000E+00   9.7570000E-02
       11   -1    0    0    0    0  0.00000000000E+00  0.00000000000E+00  2.50000000000E+02  2.50000000000E+02  0.00000000000E+00  0.0000E+00  9.0
      -11   -1    0    0    0    0  0.00000000000E+00  0.00000000000E+00 -1.23359467620E+02  1.23359467620E+02  0.00000000000E+00  0.0000E+00  9.0
  3000025    2    1    2    0    0 -1.13387454826E+01 -5.60698740878E+01  1.10033631326E+02  2.02687546556E+02  1.60319816544E+02  3.6279E-13  9.0
 -3000025    2    1    2    0    0  1.13387454826E+01  5.60698740878E+01  1.66069010598E+01  1.70671921063E+02  1.59939730984E+02  4.3668E-13  9.0
        2    1    3    3  500    0  3.04682715881E+00 -5.29497983534E+01  6.05967187406E+01  8.05290421682E+01  3.00000000000E-03  0.0000E+00  9.0
       -1    1    3    3    0  500  2.50180754552E+01  2.34385638226E+01  2.25585424208E+01  4.10384969839E+01  5.00000000000E-03  0.0000E+00  9.0
  3000022    1    3    3    0    0 -3.94036480964E+01 -2.65586395568E+01  2.68783701644E+01  8.11200074033E+01  6.00000000000E+01  0.0000E+00  9.0
      -14    1    4    4    0    0  1.82039550183E+01  3.30936150630E+01 -2.13476936258E+01  4.33854279613E+01  0.00000000000E+00  0.0000E+00  9.0
       13    1    4    4    0    0 -4.57204152425E+01 -1.97750628436E+00  1.31787742585E+01  4.76230843656E+01  1.05700000000E-01  0.0000E+00  9.0
  3000022    1    4    4    0    0  3.88552057068E+01  2.49537653099E+01  2.47758204271E+01  7.96634087363E+01  6.00000000000E+01  0.0000E+00  9.0
</event>
<event>
10    1   3.4312288E-02   4.9320000E+02  -1.0000000E+00   9.3640000E-02
       11   -1    0    0    0    0  0.00000000000E+00  0.00000000000E+00  2.50000000000E+02  2.50000000000E+02  0.00000000000E+00  0.0000E+00  9.0
      -11   -1    0    0    0    0  0.00000000000E+00  0.00000000000E+00 -2.43238448230E+02  2.43238448230E+02  0.00000000000E+00  0.0000E+00  9.0
  3000025    2    1    2    0    0  1.09456884057E+02  1.50129237433E+02  2.97618456956E+01  2.47008653130E+02  1.60024716410E+02  5.7628E-13  9.0
 -3000025    2    1    2    0    0 -1.09456884057E+02 -1.50129237433E+02 -2.30002939266E+01  2.46229795110E+02  1.59939054267E+02  2.3629E-12  9.0
        2    1    3    3  500    0  6.14155334840E+01  1.16250014804E+01  2.37397745117E+01  6.68624357574E+01  3.00000000000E-03  0.0000E+00  9.0
       -1    1    3    3    0  500  4.33346641925E+01  9.79354347372E+01  9.25260524503E+00  1.07493503183E+02  5.00000000000E-03  0.0000E+00  9.0
  3000022    1    3    3    0    0  4.70668638094E+00  4.05688012165E+01 -3.23053406135E+00  7.26527141898E+01  6.00000000000E+01  0.0000E+00  9.0
       -2    1    4    4    0  504  2.81954437893E+01 -2.41560199984E+01  4.60878211523E+00  3.74130623476E+01  3.00000000000E-03  0.0000E+00  9.0
        1    1    4    4  504    0 -5.50744765258E+01 -2.03318020088E+01  2.91657882016E+00  5.87799846422E+01  5.00000000000E-03  0.0000E+00  9.0
  3000022    1    4    4    0    0 -8.25778513218E+01 -1.05641415425E+02 -3.05256548623E+01  1.50036748121E+02  6.00000000000E+01  0.0000E+00  9.0
</event>
<event>
10    1   3.4312288E-02   4.5290000E+02  -1.0000000E+00   9.4600000E-02
       11   -1    0    0    0    0  0.00000000000E+00  0.00000000000E+00  2.05129158170E+02  2.05129158170E+02  0.00000000000E+00  0.0000E+00  9.0
      -11   -1    0    0    0    0  0.00000000000E+00  0.00000000000E+00 -2.50000000000E+02  2.50000000000E+02  0.00000000000E+00  0.0000E+00  9.0
  3000025    2    1    2    0    0  8.91276646061E+01 -1.01670237374E+02  6.43429050044E+01  2.19029764698E+02  1.59854467043E+02  8.6789E-13  9.0
 -3000025    2    1    2    0    0 -8.91276646061E+01  1.01670237374E+02 -1.09213746837E+02  2.36099393470E+02  1.59795817633E+02  1.2670E-12  9.0
        4    1    3    3  500    0  9.75535446936E+00 -4.03867209353E+01 -2.95866083904E+01  5.10272191363E+01  1.46817165330E+00  0.0000E+00  9.0
       -3    1    3    3    0  500  1.93575300216E+01 -4.57868025037E+01  5.25081663312E+01  7.23069345465E+01  2.00000000000E-01  0.0000E+00  9.0
  3000022    1    3    3    0    0  6.00147801152E+01 -1.54967139353E+01  4.14213470635E+01  9.56956110155E+01  6.00000000000E+01  0.0000E+00  9.0
       -2    1    4    4    0  504 -1.22075162401E+00 -1.99070415314E+01  2.92985450259E+00  2.01584868844E+01  3.00000000000E-03  0.0000E+00  9.0
        1    1    4    4  504    0 -4.31955177219E+01  4.39329061812E+01 -8.45813595231E+01  1.04642053690E+02  5.00000000000E-03  0.0000E+00  9.0
  3000022    1    4    4    0    0 -4.47113952604E+01  7.76443727246E+01 -2.75622418169E+01  1.11298852896E+02  6.00000000000E+01  0.0000E+00  9.0
</event>
<event>
10    1   3.4312288E-02   4.9360000E+02  -1.0000000E+00   9.3630000E-02
       11   -1    0    0    0    0  0.00000000000E+00  0.00000000000E+00  2.49996277270E+02  2.49996277270E+02  0.00000000000E+00  0.0000E+00  9.0
      -11   -1    0    0    0    0  0.00000000000E+00  0.00000000000E+00 -2.43638972210E+02  2.43638972210E+02  0.00000000000E+00  0.0000E+00  9.0
  3000025    2    1    2    0    0 -1.74104353656E+02 -4.96112457849E+01 -4.73610625390E+01  2.46156101346E+02  1.59925464872E+02  4.1114E-13  9.0
 -3000025    2    1    2    0    0  1.74104353656E+02  4.96112457849E+01  5.37183675970E+01  2.47479148130E+02  1.59958319794E+02  2.1381E-12  9.0
        4    1    3    3  500    0 -5.76301751526E+01 -5.38014689733E+01 -1.41554356171E+01  8.01147117409E+01  1.46817165330E+00  0.0000E+00  9.0
       -3    1    3    3    0  500 -4.62532935090E+01  2.11457358279E+01  2.38370916998E+01  5.61672168159E+01  2.00000000000E-01  0.0000E+00  9.0
  3000022    1    3    3    0    0 -7.02208849946E+01 -1.69555126393E+01 -5.70427186223E+01  1.09874172789E+02  6.00000000000E+01  0.0000E+00  9.0
       -2    1    4    4    0  504  6.10888041339E+01  2.36748798288E+01  4.19561256832E+01  7.77988330039E+01  3.00000000000E-03  0.0000E+00  9.0
        1    1    4    4  504    0  7.22199481614E+01  9.57285762478E-01 -3.45377460770E+01  8.00593107487E+01  5.00000000000E-03  0.0000E+00  9.0
  3000022    1    4    4    0    0  4.07956013607E+01  2.49790801930E+01  4.62999879897E+01  8.96210043768E+01  6.00000000000E+01  0.0000E+00  9.0
</event>
<event>
10    1   3.4312288E-02   4.9500000E+02  -1.0000000E+00   9.3600000E-02
       11   -1    0    0    0    0  0.00000000000E+00  0.00000000000E+00  2.50000000000E+02  2.50000000000E+02  0.00000000000E+00  0.0000E+00  9.0
      -11   -1    0    0    0    0  0.00000000000E+00  0.00000000000E+00 -2.45011635480E+02  2.45011635480E+02  0.00000000000E+00  0.0000E+00  9.0
  3000025    2    1    2    0    0 -7.85233856863E+00  1.85413489270E+02 -3.28341197644E+01  2.47120406896E+02  1.59845534374E+02  7.2581E-13  9.0
 -3000025    2    1    2    0    0  7.85233856863E+00 -1.85413489270E+02  3.78224842814E+01  2.47891228591E+02  1.59936548890E+02  2.8454E-12  9.0
        4    1    3    3  500    0 -9.62861655765E+00 -8.81536902674E+00 -1.20992381148E+01  1.78596774566E+01  1.46817165330E+00  0.0000E+00  9.0
       -3    1    3    3    0  500  3.65581766568E+01  9.90986563452E+01 -3.35779129291E+01  1.10835735242E+02  2.00000000000E-01  0.0000E+00  9.0
  3000022    1    3    3    0    0 -3.47818986672E+01  9.51302019525E+01  1.28430312793E+01  1.18424994198E+02  6.00000000000E+01  0.0000E+00  9.0
       -2    1    4    4    0  504 -2.27846089314E+01  6.80733820108E+00 -1.60810914190E+01  2.87067895761E+01  3.00000000000E-03  0.0000E+00  9.0
        1    1    4    4  504    0  3.00459972969E+01 -5.64677301624E+01  1.37242043288E+01  6.54195713278E+01  5.00000000000E-03  0.0000E+00  9.0
  3000022    1    4    4    0    0  5.90950203634E-01 -1.35753097309E+02  4.01793713709E+01  1.53764867687E+02  6.00000000000E+01  0.0000E+00  9.0
</event>
<event>
10    1   3.4312288E-02   5.0000000E+02  -1.0000000E+00   9.3490000E-02
       11   -1    0    0    0    0  0.00000000000E+00  0.00000000000E+00  2.49999937730E+02  2.49999937730E+02  0.00000000000E+00  0.0000E+00  9.0
      -11   -1    0    0    0    0  0.00000000000E+00  0.00000000000E+00 -2.50000000000E+02  2.50000000000E+02  0.00000000000E+00  0.0000E+00  9.0
  3000025    2    1    2    0    0  1.46888251352E+02 -1.42385420490E+01 -1.22983458978E+02  2.50005028172E+02  1.59995901399E+02  5.3850E-13  9.0
 -3000025    2    1    2    0    0 -1.46888251352E+02  1.42385420490E+01  1.22983396708E+02  2.49994909552E+02  1.59980137739E+02  1.2955E-12  9.0
        4    1    3    3  500    0  8.20211023268E+01  1.96103645621E+01 -4.25048223422E+01  9.44502147986E+01  1.46817165330E+00  0.0000E+00  9.0
       -3    1    3    3    0  500  3.87856366539E+01 -5.12396588712E+01 -4.94476308652E+01  8.10859818346E+01  2.00000000000E-01  0.0000E+00  9.0
  3000022    1    3    3    0    0  2.60815123719E+01  1.73907522591E+01 -3.10310057704E+01  7.44688315395E+01  6.00000000000E+01  0.0000E+00  9.0
       -2    1    4    4    0  504 -4.13947894220E+01 -2.85154944908E+01  1.74022434026E+00  5.02960277468E+01  3.00000000000E-03  0.0000E+00  9.0
        1    1    4    4  504    0 -7.17860961746E+01  9.22870882925E+00  9.35784234896E+01  1.18301876733E+02  5.00000000000E-03  0.0000E+00  9.0
  3000022    1    4    4    0    0 -3.37073657548E+01  3.35253277103E+01  2.76647488776E+01  8.13970050719E+01  6.00000000000E+01  0.0000E+00  9.0
</event>
<event>
10    1   3.4312288E-02   5.0000000E+02  -1.0000000E+00   9.3490000E-02
       11   -1    0    0    0    0  0.00000000000E+00  0.00000000000E+00  2.49999732630E+02  2.49999732630E+02  0.00000000000E+00  0.0000E+00  9.0
      -11   -1    0    0    0    0  0.00000000000E+00  0.00000000000E+00 -2.50000000000E+02  2.50000000000E+02  0.00000000000E+00  0.0000E+00  9.0
  3000025    2    1    2    0    0 -5.39890559666E+01  1.49647700132E+02  1.07565165457E+02  2.49923261723E+02  1.59944114026E+02  9.0698E-14  9.0
 -3000025    2    1    2    0    0  5.39890559666E+01 -1.49647700132E+02 -1.07565432817E+02  2.50076470906E+02  1.60183228350E+02  1.0518E-12  9.0
        2    1    3    3  500    0 -1.07608302366E+01  9.33410372915E+01  9.55027111997E+01  1.33974298153E+02  3.00000000000E-03  0.0000E+00  9.0
       -1    1    3    3    0  500 -3.98453921469E+01  1.62382944692E+01  6.37908163322E+00  4.34974733759E+01  5.00000000000E-03  0.0000E+00  9.0
  3000022    1    3    3    0    0 -3.38283358317E+00  4.00683683713E+01  5.68337262439E+00  7.24514901943E+01  6.00000000000E+01  0.0000E+00  9.0
       -2    1    4    4    0  504  2.51150482593E+01 -8.50763853988E+01 -5.80847503582E+01  1.06031105034E+02  3.00000000000E-03  0.0000E+00  9.0
        1    1    4    4  504    0  4.16360828305E+01 -7.08839887448E+00  6.93904780681E+00  4.28013925186E+01  5.00000000000E-03  0.0000E+00  9.0
  3000022    1    4    4    0    0 -1.27620751228E+01 -5.74829158584E+01 -5.64197302648E+01  1.01243973352E+02  6.00000000000E+01  0.0000E+00  9.0
</event>
<event>
10    1   3.4312288E-02   4.9160000E+02  -1.0000000E+00   9.3680000E-02
       11   -1    0    0    0    0  0.00000000000E+00  0.00000000000E+00  2.41714302220E+02  2.41714302220E+02  0.00000000000E+00  0.0000E+00  9.0
      -11   -1    0    0    0    0  0.00000000000E+00  0.00000000000E+00 -2.50000000000E+02  2.50000000000E+02  0.00000000000E+00  0.0000E+00  9.0
  3000025    2    1    2    0    0  3.39893743462E+01  1.73895329117E+02 -6.28007234556E+01  2.46851264706E+02  1.59989852689E+02  1.0456E-12  9.0
 -3000025    2    1    2    0    0 -3.39893743462E+01 -1.73895329117E+02  5.45150256736E+01  2.44863037508E+02  1.59972360289E+02  3.3748E-12  9.0
        4    1    3    3  500    0 -7.05373365654E+00 -7.52856458908E+00  1.08240050558E+01  1.50249478109E+01  1.46817165330E+00  0.0000E+00  9.0
       -3    1    3    3    0  500  6.05423765051E+01  9.73957376787E+01 -4.13276043545E+01  1.21898810300E+02  2.00000000000E-01  0.0000E+00  9.0
  3000022    1    3    3    0    0 -1.94992685022E+01  8.40281560283E+01 -3.22971241574E+01  1.09927506596E+02  6.00000000000E+01  0.0000E+00  9.0
       -4    1    4    4    0  504  3.47108002642E+01 -9.40387204548E+00  6.92018553400E+00  3.66512886575E+01  1.46817165330E+00  0.0000E+00  9.0
        3    1    4    4  504    0 -1.63220460222E+01 -9.60509713463E+01  2.81615016700E+01  1.01416509796E+02  2.00000000000E-01  0.0000E+00  9.0
  3000022    1    4    4    0    0 -5.23781285877E+01 -6.84404857242E+01  1.94333384696E+01  1.06795239054E+02  6.00000000000E+01  0.0000E+00  9.0
</event>
<event>
10    1   3.4312288E-02   4.1160000E+02  -1.0000000E+00   9.5700000E-02
       11   -1    0    0    0    0  0.00000000000E+00  0.00000000000E+00  1.69384198700E+02  1.69384198700E+02  0.00000000000E+00  0.0000E+00  9.0
      -11   -1    0    0    0    0  0.00000000000E+00  0.00000000000E+00 -2.50000000000E+02  2.50000000000E+02  0.00000000000E+00  0.0000E+00  9.0
  3000025    2    1    2    0    0 -1.11511099983E+02 -6.49496453921E+01 -3.17551038138E+01  2.08017232225E+02  1.60029998527E+02  4.9605E-12  9.0
 -3000025    2    1    2    0    0  1.11511099983E+02  6.49496453921E+01 -4.88606974892E+01  2.11366966466E+02  1.60110726992E+02  3.2235E-12  9.0
        2    1    3    3  500    0 -7.14391666168E+01 -1.54276904539E+01  2.70870320594E+01  7.79440534898E+01  3.00000000000E-03  0.0000E+00  9.0
       -1    1    3    3    0  500 -2.78077920709E+01 -4.60581608604E+01 -3.54232708626E+01  6.44161130876E+01  5.00000000000E-03  0.0000E+00  9.0
  3000022    1    3    3    0    0 -1.22641412950E+01 -3.46379407795E+00 -2.34188650105E+01  6.56570656480E+01  6.00000000000E+01  0.0000E+00  9.0
       -2    1    4    4    0  504  5.08656482490E+00 -8.33997076804E+00  2.06864120401E+01  2.28769732749E+01  3.00000000000E-03  0.0000E+00  9.0
        1    1    4    4  504    0  3.57903439591E+00  1.67004068044E+01  2.21012883337E+01  2.79317032358E+01  5.00000000000E-03  0.0000E+00  9.0
  3000022    1    4    4    0    0  1.02845500763E+02  5.65892093558E+01 -9.16483978621E+01  1.60558289955E+02  6.00000000000E+01  0.0000E+00  9.0
</event>
<event>
10    1   3.4312288E-02   5.0000000E+02  -1.0000000E+00   9.3490000E-02
       11   -1    0    0    0    0  0.00000000000E+00  0.00000000000E+00  2.49999146660E+02  2.49999146660E+02  0.00000000000E+00  0.0000E+00  9.0
      -11   -1    0    0    0    0  0.00000000000E+00  0.00000000000E+00 -2.50000000000E+02  2.50000000000E+02  0.00000000000E+00  0.0000E+00  9.0
  3000025    2    1    2    0    0 -1.75574487579E+02  7.75146642360E+01  7.23311526548E+00  2.49958227298E+02  1.59974602913E+02  4.6110E-13  9.0
 -3000025    2    1    2    0    0  1.75574487579E+02 -7.75146642360E+01 -7.23396860538E+00  2.50040919368E+02  1.60103738857E+02  5.8141E-12  9.0
        2    1    3    3  500    0 -3.76119704562E+01  1.69719015912E+01 -4.21935111461E+01  5.90169311051E+01  3.00000000000E-03  0.0000E+00  9.0
       -1    1    3    3    0  500 -1.04240152898E+02  2.79112410801E+01  2.31674687127E+01  1.10371094433E+02  5.00000000000E-03  0.0000E+00  9.0
  3000022    1    3    3    0    0 -3.37223642252E+01  3.26315215648E+01  2.62591576989E+01  8.05702017599E+01  6.00000000000E+01  0.0000E+00  9.0
       -2    1    4    4    0  504  3.51490262726E+01  3.19166913761E+01  3.71473965036E+00  4.76227732915E+01  3.00000000000E-03  0.0000E+00  9.0
        1    1    4    4  504    0  3.76695433438E+00 -3.47716360590E+01  2.01678184417E+00  3.50331850277E+01  5.00000000000E-03  0.0000E+00  9.0
  3000022    1    4    4    0    0  1.36658506972E+02 -7.46597195530E+01 -1.29654901000E+01  1.67384961048E+02  6.00000000000E+01  0.0000E+00  9.0
</event>
<event>
10    1   3.4312288E-02   4.9010000E+02  -1.0000000E+00   9.3710000E-02
       11   -1    0    0    0    0  0.00000000000E+00  0.00000000000E+00  2.40437363310E+02  2.40437363310E+02  0.00000000000E+00  0.0000E+00  9.0
      -11   -1    0    0    0    0  0.00000000000E+00  0.00000000000E+00 -2.49710667150E+02  2.49710667150E+02  0.00000000000E+00  0.0000E+00  9.0
  3000025    2    1    2    0    0  9.41626278696E+01 -1.59620762467E+02 -4.87151099915E+00  2.44993535369E+02  1.60164641713E+02  2.5266E-12  9.0
 -3000025    2    1    2    0    0 -9.41626278696E+01  1.59620762467E+02 -4.40179284005E+00  2.45154495097E+02  1.60424319815E+02  2.9029E-13  9.0
        4    1    3    3  500    0  1.02678101304E+01 -7.93668919845E+01  3.01993847118E+01  8.55493415120E+01  1.46817165330E+00  0.0000E+00  9.0
       -3    1    3    3    0  500  1.35748338756E+01 -3.05918985408E+01 -4.26757355640E+01  5.42346639798E+01  2.00000000000E-01  0.0000E+00  9.0
  3000022    1    3    3    0    0  7.03199838644E+01 -4.96619719430E+01  7.60483985345E+00  1.05209529878E+02  6.00000000000E+01  0.0000E+00  9.0
       -2    1    4    4    0  504 -2.95389664452E+01  4.73763393899E+01  3.40171199760E+01  6.53776149236E+01  3.00000000000E-03  0.0000E+00  9.0
        1    1    4    4  504    0  1.72261691997E+01  7.57027335466E+00 -2.78355563618E+01  3.35986334087E+01  5.00000000000E-03  0.0000E+00  9.0
  3000022    1    4    4    0    0 -8.18498306244E+01  1.04674149723E+02 -1.05833564541E+01  1.46178246765E+02  6.00000000000E+01  0.0000E+00  9.0
</event>
<event>
10    1   3.4312288E-02   4.9950000E+02  -1.0000000E+00   9.3500000E-02
       11   -1    0    0    0    0  0.00000000000E+00  0.00000000000E+00  2.49555654690E+02  2.49555654690E+02  0.00000000000E+00  0.0000E+00  9.0
      -11   -1    0    0    0    0  0.00000000000E+00  0.00000000000E+00 -2.49954404460E+02  2.49954404460E+02  0.00000000000E+00  0.0000E+00  9.0
  3000025    2    1    2    0    0  1.64953628410E+02  2.29126697870E+01 -9.56214075541E+01  2.50009961415E+02  1.60083844474E+02  1.7730E-12  9.0
 -3000025    2    1    2    0    0 -1.64953628410E+02 -2.29126697870E+01  9.52226577821E+01  2.49500097733E+02  1.59525089723E+02  1.2092E-12  9.0
        2    1    3    3  500    0  3.39922833745E+01 -3.90862745586E+01 -1.98060407293E+01  5.54571135767E+01  3.00000000000E-03  0.0000E+00  9.0
       -1    1    3    3    0  500  9.96798213900E+01  3.02675508076E+01 -3.89280033147E+01  1.11209625893E+02  5.00000000000E-03  0.0000E+00  9.0
  3000022    1    3    3    0    0  3.12815236458E+01  3.17313935380E+01 -3.68873635103E+01  8.33432219452E+01  6.00000000000E+01  0.0000E+00  9.0
      -14    1    4    4    0    0  1.65025644177E+00  1.96963539886E+01  5.89494098944E+00  2.06257129825E+01  0.00000000000E+00  0.0000E+00  9.0
       13    1    4    4    0    0 -1.07643828672E+02 -2.27261621976E+01  9.04555058803E+01  1.42428515460E+02  1.05700000000E-01  0.0000E+00  9.0
  3000022    1    4    4    0    0 -5.89600561793E+01 -1.98828615780E+01 -1.12778908719E+00  8.64458692906E+01  6.00000000000E+01  0.0000E+00  9.0
</event>
<event>
10    1   3.4312288E-02   5.0000000E+02  -1.0000000E+00   9.3490000E-02
       11   -1    0    0    0    0  0.00000000000E+00  0.00000000000E+00  2.49978130240E+02  2.49978130240E+02  0.00000000000E+00  0.0000E+00  9.0
      -11   -1    0    0    0    0  0.00000000000E+00  0.00000000000E+00 -2.49999750580E+02  2.49999750580E+02  0.00000000000E+00  0.0000E+00  9.0
  3000025    2    1    2    0    0 -1.83783471069E+02 -5.55107542662E+01  3.54455595698E+00  2.49987822395E+02  1.60073543695E+02  8.4613E-14  9.0
 -3000025    2    1    2    0    0  1.83783471069E+02  5.55107542662E+01 -3.56617630388E+00  2.49990058421E+02  1.60076555492E+02  4.0422E-12  9.0
       14    1    3    3    0    0 -3.77891114418E+01  3.25133201089E+01  2.27415076688E+01  5.47933307904E+01  0.00000000000E+00  0.0000E+00  9.0
      -13    1    3    3    0    0 -8.28460248638E+01 -4.24030985720E+01  7.30884405738E+00  9.33537196805E+01  1.05700000000E-01  0.0000E+00  9.0
  3000022    1    3    3    0    0 -6.31483347637E+01 -4.56209758030E+01 -2.65057957691E+01  1.01840771924E+02  6.00000000000E+01  0.0000E+00  9.0
      -14    1    4    4    0    0  1.21873450378E+02  7.97469730938E+01  1.57834695508E+01  1.46498585439E+02  0.00000000000E+00  0.0000E+00  9.0
       13    1    4    4    0    0  1.11717201348E+01 -1.87875824648E+01  1.80908284123E+00  2.19331835094E+01  1.05700000000E-01  0.0000E+00  9.0
  3000022    1    4    4    0    0  5.07383005564E+01 -5.44863636285E+00 -2.11587286958E+01  8.15582894719E+01  6.00000000000E+01  0.0000E+00  9.0
</event>
<event>
10    1   3.4312288E-02   4.9800000E+02  -1.0000000E+00   9.3540000E-02
       11   -1    0    0    0    0  0.00000000000E+00  0.00000000000E+00  2.47973002170E+02  2.47973002170E+02  0.00000000000E+00  0.0000E+00  9.0
      -11   -1    0    0    0    0  0.00000000000E+00  0.00000000000E+00 -2.49999975930E+02  2.49999975930E+02  0.00000000000E+00  0.0000E+00  9.0
  3000025    2    1    2    0    0  9.46845627489E+01  1.50331383683E+02  6.86985452132E+01  2.48826812882E+02  1.60095600663E+02  3.2939E-12  9.0
 -3000025    2    1    2    0    0 -9.46845627489E+01 -1.50331383683E+02 -7.07255189712E+01  2.49146165219E+02  1.59709177152E+02  1.5637E-13  9.0
        4    1    3    3  500    0 -1.10510753857E+01  4.32758088230E+01 -7.10881697193E+00  4.52505547282E+01  1.46817165330E+00  0.0000E+00  9.0
       -3    1    3    3    0  500  7.82157095040E+01  3.39021803393E+01  1.17546656293E+01  8.60538622551E+01  2.00000000000E-01  0.0000E+00  9.0
  3000022    1    3    3    0    0  2.75199286307E+01  7.31533945216E+01  6.40526965559E+01  1.17522395899E+02  6.00000000000E+01  0.0000E+00  9.0
       -2    1    4    4    0  504  8.61289230656E+00  1.17435165578E+01 -7.76595656837E+00  1.65046110360E+01  3.00000000000E-03  0.0000E+00  9.0
        1    1    4    4  504    0 -7.67580127885E+01 -7.59452059891E+01 -1.18197291052E+00  1.07985480158E+02  5.00000000000E-03  0.0000E+00  9.0
  3000022    1    4    4    0    0 -2.65394422658E+01 -8.61296942520E+01 -6.17775894929E+01  1.24656074025E+02  6.00000000000E+01  0.0000E+00  9.0
</event>
<event>
10    1   3.4312288E-02   4.9070000E+02  -1.0000000E+00   9.3700000E-02
       11   -1    0    0    0    0  0.00000000000E+00  0.00000000000E+00  2.41180469100E+02  2.41180469100E+02  0.00000000000E+00  0.0000E+00  9.0
      -11   -1    0    0    0    0  0.00000000000E+00  0.00000000000E+00 -2.49637913800E+02  2.49637913800E+02  0.00000000000E+00  0.0000E+00  9.0
  3000025    2    1    2    0    0 -1.35944619359E+02 -1.25253701004E+02 -2.83903425818E+00  2.44547822746E+02  1.60081692727E+02  1.5860E-13  9.0
 -3000025    2    1    2    0    0  1.35944619359E+02  1.25253701004E+02 -5.61841044262E+00  2.46270560152E+02  1.62629004528E+02  2.0665E-12  9.0
       14    1    3    3    0    0 -5.78445668212E+00 -4.37259970924E+01 -7.73874024233E+00  4.47806974195E+01  0.00000000000E+00  0.0000E+00  9.0
      -13    1    3    3    0    0 -9.14377280447E+01 -2.80420992038E+01  4.02948927697E+01  1.03782980269E+02  1.05700000000E-01  0.0000E+00  9.0
  3000022    1    3    3    0    0 -3.87224346321E+01 -5.34856047079E+01 -3.53951867859E+01  9.59841450575E+01  6.00000000000E+01  0.0000E+00  9.0
      -14    1    4    4    0    0  6.52855630421E+01  9.00314717901E+01  3.24196075534E+01  1.15839982771E+02  0.00000000000E+00  0.0000E+00  9.0
       13    1    4    4    0    0 -7.48556517822E+00  3.97039054332E+00  1.27167555838E+01  1.52815160299E+01  1.05700000000E-01  0.0000E+00  9.0
  3000022    1    4    4    0    0  7.81446214955E+01  3.12518386706E+01 -5.07547735799E+01  1.15149061351E+02  6.00000000000E+01  0.0000E+00  9.0
</event>
<event>
10    1   3.4312288E-02   4.6280000E+02  -1.0000000E+00   9.4350000E-02
       11   -1    0    0    0    0  0.00000000000E+00  0.00000000000E+00  2.18023777130E+02  2.18023777130E+02  0.00000000000E+00  0.0000E+00  9.0
      -11   -1    0    0    0    0  0.00000000000E+00  0.00000000000E+00 -2.45638883530E+02  2.45638883530E+02  0.00000000000E+00  0.0000E+00  9.0
  3000025    2    1    2    0    0  9.10215801706E+01 -1.35278126681E+02  2.32268596661E+01  2.29692729930E+02  1.60106725522E+02  2.7079E-13  9.0
 -3000025    2    1    2    0    0 -9.10215801706E+01  1.35278126681E+02 -5.08419660701E+01  2.33969930735E+02  1.59912236428E+02  8.1480E-13  9.0
        4    1    3    3  500    0  8.73821943164E+00  1.34610152994E+01 -1.04031448975E+01  1.91816673803E+01  1.46817165330E+00  0.0000E+00  9.0
       -3    1    3    3    0  500  6.71295736188E+01 -6.73586543513E+01  4.92392312959E+01  1.07089261221E+02  2.00000000000E-01  0.0000E+00  9.0
  3000022    1    3    3    0    0  1.51537871204E+01 -8.13804876291E+01 -1.56092267323E+01  1.03421801328E+02  6.00000000000E+01  0.0000E+00  9.0
       -2    1    4    4    0  504 -2.59562829812E+01 -8.83331237564E+00 -2.04127128516E+01  3.41823768730E+01  3.00000000000E-03  0.0000E+00  9.0
        1    1    4    4  504    0  1.74740251825E+01  6.76338200841E+01 -1.35115427547E+01  7.11493990689E+01  5.00000000000E-03  0.0000E+00  9.0
  3000022    1    4    4    0    0 -8.25393223717E+01  7.64776189721E+01 -1.69177104641E+01  1.28638154793E+02  6.00000000000E+01  0.0000E+00  9.0
</event>
<event>
10    1   3.4312288E-02   4.2060000E+02  -1.0000000E+00   9.5440000E-02
       11   -1    0    0    0    0  0.00000000000E+00  0.00000000000E+00  2.49999523080E+02  2.49999523080E+02  0.00000000000E+00  0.0000E+00  9.0
      -11   -1    0    0    0    0  0.00000000000E+00  0.00000000000E+00 -1.76935926640E+02  1.76935926640E+02  0.00000000000E+00  0.0000E+00  9.0
  3000025    2    1    2    0    0 -1.21239634378E+02  3.34861156367E+01 -1.72130680349E+01  2.04267793307E+02  1.60027100164E+02  2.4288E-13  9.0
 -3000025    2    1    2    0    0  1.21239634378E+02 -3.34861156367E+01  9.02766644759E+01  2.22667656417E+02  1.60033247111E+02  1.4852E-12  9.0
        4    1    3    3  500    0 -5.41251874585E+00  5.39453544377E+00  3.81383783249E+01  3.89241287774E+01  1.46817165330E+00  0.0000E+00  9.0
       -3    1    3    3    0  500 -1.81183820676E+01  4.82846276383E+00 -4.39619155706E+01  4.77941402480E+01  2.00000000000E-01  0.0000E+00  9.0
  3000022    1    3    3    0    0 -9.77087335643E+01  2.32631174291E+01 -1.13895307890E+01  1.17549524282E+02  6.00000000000E+01  0.0000E+00  9.0
      -14    1    4    4    0    0  7.64109810146E+00 -3.95419984173E+01  2.36385112318E+01  4.66983429286E+01  0.00000000000E+00  0.0000E+00  9.0
       13    1    4    4    0    0  1.01020667230E+02 -1.93334129363E+00  4.09386094251E+01  1.09017860602E+02  1.05700000000E-01  0.0000E+00  9.0
  3000022    1    4    4    0    0  1.25778690466E+01  7.98922407520E+00  2.56995438189E+01  6.69514528862E+01  6.00000000000E+01  0.0000E+00  9.0
</event>
<event>
10    1   3.4312288E-02   5.0000000E+02  -1.0000000E+00   9.3490000E-02
       11   -1    0    0    0    0  0.00000000000E+00  0.00000000000E+00  2.50000000000E+02  2.50000000000E+02  0.00000000000E+00  0.0000E+00  9.0
      -11   -1    0    0    0    0  0.00000000000E+00  0.00000000000E+00 -2.50000000000E+02  2.50000000000E+02  0.00000000000E+00  0.0000E+00  9.0
  3000025    2    1    2    0    0  1.11915466881E+02 -1.53848688576E+02 -2.83048622169E+01  2.50036737776E+02  1.59758299655E+02  1.1245E-12  9.0
 -3000025    2    1    2    0    0 -1.11915466881E+02  1.53848688576E+02  2.83048622169E+01  2.49963262224E+02  1.59643279009E+02  2.0445E-13  9.0
       14    1    3    3    0    0  1.86049150136E+01  2.25630130492E+01  6.46968697678E+00  2.99514485476E+01  0.00000000000E+00  0.0000E+00  9.0
      -13    1    3    3    0    0  5.31564194618E+01 -6.54189089121E+01 -2.16520516145E+01  8.70290818339E+01  1.05700000000E-01  0.0000E+00  9.0
  3000022    1    3    3    0    0  4.01541324063E+01 -1.10992792713E+02 -1.31224975796E+01  1.33056207395E+02  6.00000000000E+01  0.0000E+00  9.0
       -2    1    4    4    0  500 -5.49158809959E+01  1.03102850844E+02  9.77361899948E+00  1.17224039663E+02  3.00000000000E-03  0.0000E+00  9.0
        1    1    4    4  500    0 -1.32413299626E+01  2.77642519340E+00  3.96074196886E+01  4.18543794055E+01  5.00000000000E-03  0.0000E+00  9.0
  3000022    1    4    4    0    0 -4.37582559234E+01  4.79694125389E+01 -2.10761764708E+01  9.08848431556E+01  6.00000000000E+01  0.0000E+00  9.0
</event>
<event>
10    1   3.4312288E-02   4.8850000E+02  -1.0000000E+00   9.3750000E-02
       11   -1    0    0    0    0  0.00000000000E+00  0.00000000000E+00  2.49999872900E+02  2.49999872900E+02  0.00000000000E+00  0.0000E+00  9.0
      -11   -1    0    0    0    0  0.00000000000E+00  0.00000000000E+00 -2.38680829570E+02  2.38680829570E+02  0.00000000000E+00  0.0000E+00  9.0
  3000025    2    1    2    0    0 -1.55676798073E+02  8.00892947321E+01 -5.28911705018E+01  2.43055216442E+02  1.60089980116E+02  9.5578E-13  9.0
 -3000025    2    1    2    0    0  1.55676798073E+02 -8.00892947321E+01  6.42102138338E+01  2.45625486040E+02  1.59872972209E+02  2.8627E-14  9.0
        4    1    3    3  500    0 -1.26946643100E+01  3.35379691229E+01 -4.75516419600E+01  5.95757002135E+01  1.46817165330E+00  0.0000E+00  9.0
       -3    1    3    3    0  500 -1.03859341359E+02  3.05750442580E+01 -1.55745568789E+01  1.09380998993E+02  2.00000000000E-01  0.0000E+00  9.0
  3000022    1    3    3    0    0 -3.91227924042E+01  1.59762813522E+01  1.02350283378E+01  7.40985172350E+01  6.00000000000E+01  0.0000E+00  9.0
       -4    1    4    4    0  504 -6.89028954122E+00  1.01681526330E+01 -9.61106904498E+00  1.56651075362E+01  1.46817165330E+00  0.0000E+00  9.0
        3    1    4    4  504    0  9.56338756735E+01 -1.50985676501E+01  5.48137934985E+01  1.11258244095E+02  2.00000000000E-01  0.0000E+00  9.0
  3000022    1    4    4    0    0  6.69332119411E+01 -7.51588797151E+01  1.90074893803E+01  1.18702134409E+02  6.00000000000E+01  0.0000E+00  9.0
</event>
<event>
10    1   3.4312288E-02   4.9870000E+02  -1.0000000E+00   9.3520000E-02
       11   -1    0    0    0    0  0.00000000000E+00  0.00000000000E+00  2.49997657820E+02  2.49997657820E+02  0.00000000000E+00  0.0000E+00  9.0
      -11   -1    0    0    0    0  0.00000000000E+00  0.00000000000E+00 -2.48712747480E+02  2.48712747480E+02  0.00000000000E+00  0.0000E+00  9.0
  3000025    2    1    2    0    0 -1.88661556580E+02 -2.18734784985E-01  2.67105185085E+01  2.49021625847E+02  1.60328062312E+02  1.5774E-12  9.0
 -3000025    2    1    2    0    0  1.88661556580E+02  2.18734784985E-01 -2.54256081745E+01  2.49688779447E+02  1.61569781379E+02  7.8455E-14  9.0
        2    1    3    3  500    0  2.32463885677E+01 -5.85824517294E+00  4.70130067353E+00  2.44298148779E+01  3.00000000000E-03  0.0000E+00  9.0
       -1    1    3    3    0  500 -2.18724287221E+01  4.07017625344E+00  1.14554419592E+01  2.50239215236E+01  5.00000000000E-03  0.0000E+00  9.0
  3000022    1    3    3    0    0 -1.90035516425E+02  1.56933413462E+00  1.05537758758E+01  1.99567889446E+02  6.00000000000E+01  0.0000E+00  9.0
       -4    1    4    4    0  504  2.17222995737E+01 -4.60087825518E+00 -3.40771287039E+01  4.06992949349E+01  1.46817165330E+00  0.0000E+00  9.0
        3    1    4    4  504    0  4.41431422174E+01  2.78930906853E+01  4.13181372977E+01  6.65873109726E+01  2.00000000000E-01  0.0000E+00  9.0
  3000022    1    4    4    0    0  1.22796114788E+02 -2.30734776447E+01 -3.26666167683E+01  1.42402173540E+02  6.00000000000E+01  0.0000E+00  9.0
</event>
<event>
10    1   3.4312288E-02   5.0000000E+02  -1.0000000E+00   9.3490000E-02
       11   -1    0    0    0    0  0.00000000000E+00  0.00000000000E+00  2.50000000000E+02  2.50000000000E+02  0.00000000000E+00  0.0000E+00  9.0
      -11   -1    0    0    0    0  0.00000000000E+00  0.00000000000E+00 -2.49999999940E+02  2.49999999940E+02  0.00000000000E+00  0.0000E+00  9.0
  3000025    2    1    2    0    0 -1.21934325678E+02 -1.44777648286E+02 -3.51094291480E+01  2.49887771723E+02  1.59319425117E+02  3.3739E-13  9.0
 -3000025    2    1    2    0    0  1.21934325678E+02  1.44777648286E+02  3.51094292080E+01  2.50112228208E+02  1.59671248063E+02  3.7351E-13  9.0
        4    1    3    3  500    0 -1.03135373721E+02 -1.12790723648E+02 -1.23043990881E+01  1.53336904946E+02  1.46817165330E+00  0.0000E+00  9.0
       -3    1    3    3    0  500 -9.82498537120E+00  3.10767135097E+00 -2.43559004634E+01  2.64468872678E+01  2.00000000000E-01  0.0000E+00  9.0
  3000022    1    3    3    0    0 -8.97396658517E+00 -3.50945959892E+01  1.55087040311E+00  7.01039795084E+01  6.00000000000E+01  0.0000E+00  9.0
       -2    1    4    4    0  504 -7.91792516030E+00  4.46275205308E+01  8.25037529645E+00  4.60692720705E+01  3.00000000000E-03  0.0000E+00  9.0
        1    1    4    4  504    0  9.39122811169E+01  7.59315810599E+01 -1.03308638017E+01  1.21209934901E+02  5.00000000000E-03  0.0000E+00  9.0
  3000022    1    4    4    0    0  3.59399697214E+01  2.42185466954E+01  3.71899177133E+01  8.28330212363E+01  6.00000000000E+01  0.0000E+00  9.0
</event>
<event>
10    1   3.4312288E-02   4.8540000E+02  -1.0000000E+00   9.3820000E-02
       11   -1    0    0    0    0  0.00000000000E+00  0.00000000000E+00  2.47626802320E+02  2.47626802320E+02  0.00000000000E+00  0.0000E+00  9.0
      -11   -1    0    0    0    0  0.00000000000E+00  0.00000000000E+00 -2.37880865190E+02  2.37880865190E+02  0.00000000000E+00  0.0000E+00  9.0
  3000025    2    1    2    0    0 -1.40423626481E+02 -8.89222857005E+01  8.02121486586E+01  2.44208265651E+02  1.59930361256E+02  4.7282E-13  9.0
 -3000025    2    1    2    0    0  1.40423626481E+02  8.89222857005E+01 -7.04662115266E+01  2.41299401856E+02  1.60106047984E+02  6.7443E-13  9.0
        2    1    3    3  500    0 -1.97179466194E+01 -3.84362472341E+01 -1.72149850167E+01  4.65026691540E+01  3.00000000000E-03  0.0000E+00  9.0
       -1    1    3    3    0  500 -1.37873303533E+01 -1.86183768969E+01  6.19712150636E+01  6.61601538542E+01  5.00000000000E-03  0.0000E+00  9.0
  3000022    1    3    3    0    0 -1.06918349508E+02 -3.18676615695E+01  3.54559186121E+01  1.31545442643E+02  6.00000000000E+01  0.0000E+00  9.0
       -2    1    4    4    0  504  8.52352708540E+00  5.90121951190E+01  5.32017824556E+00  5.98614566503E+01  3.00000000000E-03  0.0000E+00  9.0
        1    1    4    4  504    0  5.58362881855E+01 -4.29609611883E+00 -4.08351446692E+00  5.61500012074E+01  5.00000000000E-03  0.0000E+00  9.0
  3000022    1    4    4    0    0  7.60638112097E+01  3.42061867008E+01 -7.17028753053E+01  1.25287943999E+02  6.00000000000E+01  0.0000E+00  9.0
</event>
<event>
10    1   3.4312288E-02   4.8000000E+02  -1.0000000E+00   9.3940000E-02
       11   -1    0    0    0    0  0.00000000000E+00  0.00000000000E+00  2.30761564070E+02  2.30761564070E+02  0.00000000000E+00  0.0000E+00  9.0
      -11   -1    0    0    0    0  0.00000000000E+00  0.00000000000E+00 -2.49636505350E+02  2.49636505350E+02  0.00000000000E+00  0.0000E+00  9.0
  3000025    2    1    2    0    0 -1.32460859428E+02  8.75040905378E+01  7.31359363095E+01  2.36928922054E+02  1.59948753621E+02  2.5076E-12  9.0
 -3000025    2    1    2    0    0  1.32460859428E+02 -8.75040905378E+01 -9.20108775885E+01  2.43469147365E+02  1.60026182179E+02  8.1426E-13  9.0
        2    1    3    3  500    0  2.26751542289E+01  9.20675526727E+00  9.83631532841E+00  2.63757477637E+01  3.00000000000E-03  0.0000E+00  9.0
       -1    1    3    3    0  500 -6.49534021827E+01  2.61432368060E+01  5.67967410484E+01  9.01569914345E+01  5.00000000000E-03  0.0000E+00  9.0
  3000022    1    3    3    0    0 -9.01826114751E+01  5.21540984647E+01  6.50287993270E+00  1.20396182857E+02  6.00000000000E+01  0.0000E+00  9.0
       -2    1    4    4    0  504  1.25106473730E+01 -4.95943092283E+01 -3.98024520878E+00  5.13025746571E+01  3.00000000000E-03  0.0000E+00  9.0
        1    1    4    4  504    0  4.51694540383E+01 -1.14316033156E+01 -7.97424294004E+01  9.23570040882E+01  5.00000000000E-03  0.0000E+00  9.0
  3000022    1    4    4    0    0  7.47807580177E+01 -2.64781779951E+01 -8.28820297959E+00  9.98095686208E+01  6.00000000000E+01  0.0000E+00  9.0
</event>
<event>
10    1   3.4312288E-02   4.5250000E+02  -1.0000000E+00   9.4610000E-02
       11   -1    0    0    0    0  0.00000000000E+00  0.00000000000E+00  2.35697005860E+02  2.35697005860E+02  0.00000000000E+00  0.0000E+00  9.0
      -11   -1    0    0    0    0  0.00000000000E+00  0.00000000000E+00 -2.17224090610E+02  2.17224090610E+02  0.00000000000E+00  0.0000E+00  9.0
  3000025    2    1    2    0    0  1.47964916336E+02  3.80940590763E+01 -3.83083433663E+01  2.24508817270E+02  1.59974704429E+02  1.3847E-12  9.0
 -3000025    2    1    2    0    0 -1.47964916336E+02 -3.80940590763E+01  5.67812586143E+01  2.28412279201E+02  1.60010262661E+02  2.8934E-12  9.0
        2    1    3    3  500    0  3.18037574115E+01  5.55261890444E+01  9.22400497135E+00  6.46507457962E+01  3.00000000000E-03  0.0000E+00  9.0
       -1    1    3    3    0  500  5.16483131228E+01 -2.26880745817E+01  5.84544084511E+00  5.67138975942E+01  5.00000000000E-03  0.0000E+00  9.0
  3000022    1    3    3    0    0  6.45128458023E+01  5.25594461453E+00 -5.33777891828E+01  1.03144173880E+02  6.00000000000E+01  0.0000E+00  9.0
       -4    1    4    4    0  504  1.67197480161E+01  1.47715157865E+01  6.43272736208E+00  2.32654929385E+01  1.46817165330E+00  0.0000E+00  9.0
        3    1    4    4  504    0 -7.65386302592E+01 -5.24410116972E+00  4.34392289428E+01  8.81627423018E+01  2.00000000000E-01  0.0000E+00  9.0
  3000022    1    4    4    0    0 -8.81460340932E+01 -4.76214736933E+01  6.90930230981E+00  1.16984043961E+02  6.00000000000E+01  0.0000E+00  9.0
</event>
<event>
10    1   3.4312288E-02   5.0000000E+02  -1.0000000E+00   9.3490000E-02
       11   -1    0    0    0    0  0.00000000000E+00  0.00000000000E+00  2.49983349260E+02  2.49983349260E+02  0.00000000000E+00  0.0000E+00  9.0
      -11   -1    0    0    0    0  0.00000000000E+00  0.00000000000E+00 -2.49999743340E+02  2.49999743340E+02  0.00000000000E+00  0.0000E+00  9.0
  3000025    2    1    2    0    0 -1.49140093042E+02 -1.20190041076E+02  1.66066869406E+01  2.50099302149E+02  1.59954573419E+02  2.7414E-12  9.0
 -3000025    2    1    2    0    0  1.49140093042E+02  1.20190041076E+02 -1.66230810196E+01  2.49883790452E+02  1.59615690273E+02  4.4474E-13  9.0
        2    1    3    3  500    0 -8.99044938796E+01 -1.06988138981E+02  2.05236314986E+01  1.41246236627E+02  3.00000000000E-03  0.0000E+00  9.0
       -1    1    3    3    0  500 -7.69473280634E+00  7.55059367699E+00  2.07971499209E+01  2.34252395434E+01  5.00000000000E-03  0.0000E+00  9.0
  3000022    1    3    3    0    0 -5.15408663569E+01 -2.07524957726E+01 -2.47140944789E+01  8.54278259791E+01  6.00000000000E+01  0.0000E+00  9.0
       -4    1    4    4    0  504 -3.57525392431E+00  6.48217020742E+00 -1.93025699930E+01  2.07254844952E+01  1.46817165330E+00  0.0000E+00  9.0
        3    1    4    4  504    0  9.03890875660E+01  4.17700036613E+01  4.45758520959E+01  1.09096136260E+02  2.00000000000E-01  0.0000E+00  9.0
  3000022    1    4    4    0    0  6.23262593996E+01  7.19378672072E+01 -4.18963631225E+01  1.20062169695E+02  6.00000000000E+01  0.0000E+00  9.0
</event>
<event>
10    1   3.4312288E-02   5.0000000E+02  -1.0000000E+00   9.3490000E-02
       11   -1    0    0    0    0  0.00000000000E+00  0.00000000000E+00  2.49972039080E+02  2.49972039080E+02  0.00000000000E+00  0.0000E+00  9.0
      -11   -1    0    0    0    0  0.00000000000E+00  0.00000000000E+00 -2.49997332360E+02  2.49997332360E+02  0.00000000000E+00  0.0000E+00  9.0
  3000025    2    1    2    0    0  1.15407229502E+02  1.49061379311E+02 -3.66311552878E+01  2.50015205426E+02  1.60086345398E+02  7.7744E-13  9.0
 -3000025    2    1    2    0    0 -1.15407229502E+02 -1.49061379311E+02  3.66058620138E+01  2.49954166007E+02  1.59996789177E+02  8.6269E-13  9.0
        2    1    3    3  500    0 -2.03581523703E+01  3.98290138177E+01 -1.82009035591E-01  4.47307259712E+01  3.00000000000E-03  0.0000E+00  9.0
       -1    1    3    3    0  500  4.48453576033E+01 -3.81900476130E+00 -6.88551005967E+00  4.55313207552E+01  5.00000000000E-03  0.0000E+00  9.0
  3000022    1    3    3    0    0  9.09200242689E+01  1.13051370255E+02 -2.95636361926E+01  1.59753158700E+02  6.00000000000E+01  0.0000E+00  9.0
       -2    1    4    4    0  504 -8.94639207176E+00 -8.29507227271E+01  2.33430361527E+01  8.66357759697E+01  3.00000000000E-03  0.0000E+00  9.0
        1    1    4    4  504    0 -6.46934521433E+01 -4.35084213771E+01 -1.90476969516E+01  8.02560917632E+01  5.00000000000E-03  0.0000E+00  9.0
  3000022    1    4    4    0    0 -4.17673852868E+01 -2.26022352068E+01  3.23105228127E+01  8.30622982735E+01  6.00000000000E+01  0.0000E+00  9.0
</event>
<event>
10    1   3.4312288E-02   5.0000000E+02  -1.0000000E+00   9.3490000E-02
       11   -1    0    0    0    0  0.00000000000E+00  0.00000000000E+00  2.50000000000E+02  2.50000000000E+02  0.00000000000E+00  0.0000E+00  9.0
      -11   -1    0    0    0    0  0.00000000000E+00  0.00000000000E+00 -2.49999998850E+02  2.49999998850E+02  0.00000000000E+00  0.0000E+00  9.0
  3000025    2    1    2    0    0 -1.51623253040E+02 -1.01773306882E+02 -5.95218792723E+01  2.50064169801E+02  1.60130628082E+02  2.5978E-13  9.0
 -3000025    2    1    2    0    0  1.51623253040E+02  1.01773306882E+02  5.95218804223E+01  2.49935829051E+02  1.59930133302E+02  1.3358E-12  9.0
        2    1    3    3  500    0 -9.39417351874E+00 -4.93144603493E+01 -9.88283449259E+00  5.11648015949E+01  3.00000000000E-03  0.0000E+00  9.0
       -1    1    3    3    0  500 -1.00983576992E+02 -2.36485923474E+01  4.32021856976E+00  1.03805602236E+02  5.00000000000E-03  0.0000E+00  9.0
  3000022    1    3    3    0    0 -4.12455025302E+01 -2.88102541849E+01 -5.39592633495E+01  9.50937659702E+01  6.00000000000E+01  0.0000E+00  9.0
       -2    1    4    4    0  504  3.54435984987E+01  2.88880002500E+01 -3.42982430330E+01  5.71588551069E+01  3.00000000000E-03  0.0000E+00  9.0
        1    1    4    4  504    0  6.73001175620E+01  8.71962108381E+00  3.89876442236E+01  7.82647688478E+01  5.00000000000E-03  0.0000E+00  9.0
  3000022    1    4    4    0    0  4.88795369789E+01  6.41656855487E+01  5.48324792317E+01  1.14512205096E+02  6.00000000000E+01  0.0000E+00  9.0
</event>
<event>
10    1   3.4312288E-02   5.0000000E+02  -1.0000000E+00   9.3490000E-02
       11   -1    0    0    0    0  0.00000000000E+00  0.00000000000E+00  2.49955598610E+02  2.49955598610E+02  0.00000000000E+00  0.0000E+00  9.0
      -11   -1    0    0    0    0  0.00000000000E+00  0.00000000000E+00 -2.49999900620E+02  2.49999900620E+02  0.00000000000E+00  0.0000E+00  9.0
  3000025    2    1    2    0    0  5.94552123354E+00 -1.44905351786E+02 -1.25850516110E+02  2.49999564229E+02  1.60089098663E+02  5.8595E-14  9.0
 -3000025    2    1    2    0    0 -5.94552123354E+00  1.44905351786E+02  1.25806214100E+02  2.49955935009E+02  1.60055789465E+02  1.1673E-12  9.0
        2    1    3    3  500    0 -5.98093328978E+00 -3.29709410656E+01 -1.06110394450E+02  1.11275650244E+02  3.00000000000E-03  0.0000E+00  9.0
       -1    1    3    3    0  500  2.28220902649E+00  2.91641684406E+00  5.23067187061E+00  6.40889370070E+00  5.00000000000E-03  0.0000E+00  9.0
  3000022    1    3    3    0    0  9.64424549684E+00 -1.14850827564E+02 -2.49707935307E+01  1.32315020285E+02  6.00000000000E+01  0.0000E+00  9.0
       -4    1    4    4    0  504 -2.52971607573E+00  9.44744596433E-02  2.42066920258E+01  2.43829418997E+01  1.46817165330E+00  0.0000E+00  9.0
        3    1    4    4  504    0  4.11937409980E+00  3.57965416566E+01 -2.80860717918E+01  4.56862021429E+01  2.00000000000E-01  0.0000E+00  9.0
  3000022    1    4    4    0    0 -7.53517925762E+00  1.09014335670E+02  1.29685593865E+02  1.79886790967E+02  6.00000000000E+01  0.0000E+00  9.0
</event>
<event>
10    1   3.4312288E-02   5.0000000E+02  -1.0000000E+00   9.3490000E-02
       11   -1    0    0    0    0  0.00000000000E+00  0.00000000000E+00  2.49999999850E+02  2.49999999850E+02  0.00000000000E+00  0.0000E+00  9.0
      -11   -1    0    0    0    0  0.00000000000E+00  0.00000000000E+00 -2.49999669930E+02  2.49999669930E+02  0.00000000000E+00  0.0000E+00  9.0
  3000025    2    1    2    0    0  7.90722879401E+01 -1.05778167493E+02 -1.39413817288E+02  2.50016804816E+02  1.60096042429E+02  1.8116E-13  9.0
 -3000025    2    1    2    0    0 -7.90722879401E+01  1.05778167493E+02  1.39414147208E+02  2.49982864970E+02  1.60042747098E+02  2.2279E-12  9.0
        4    1    3    3  500    0 -1.98170785948E+01  1.46010391589E+01 -3.83758497703E+01  4.56154395150E+01  1.46817165330E+00  0.0000E+00  9.0
       -3    1    3    3    0  500  2.67693484295E+01 -6.06993373997E+01 -4.18903392863E+01  7.84592129811E+01  2.00000000000E-01  0.0000E+00  9.0
  3000022    1    3    3    0    0  7.21200181060E+01 -5.96798692528E+01 -5.91476282312E+01  1.25942152320E+02  6.00000000000E+01  0.0000E+00  9.0
       -2    1    4    4    0  504  3.38065160744E-02  1.57066371693E+01  6.26812461503E+01  6.46191784380E+01  3.00000000000E-03  0.0000E+00  9.0
        1    1    4    4  504    0 -8.24951299275E+01  5.08578319695E+01  4.66406323709E+01  1.07551448839E+02  5.00000000000E-03  0.0000E+00  9.0
  3000022    1    4    4    0    0  3.38903547149E+00  3.92136983535E+01  3.00922686860E+01  7.78122376921E+01  6.00000000000E+01  0.0000E+00  9.0
</event>
<event>
10    1   3.4312288E-02   5.0000000E+02  -1.0000000E+00   9.3490000E-02
       11   -1    0    0    0    0  0.00000000000E+00  0.00000000000E+00  2.49999958110E+02  2.49999958110E+02  0.00000000000E+00  0.0000E+00  9.0
      -11   -1    0    0    0    0  0.00000000000E+00  0.00000000000E+00 -2.50000000000E+02  2.50000000000E+02  0.00000000000E+00  0.0000E+00  9.0
  3000025    2    1    2    0    0  7.04833337631E+01 -1.06969373325E+02  1.43571517410E+02  2.49831161581E+02  1.59350185182E+02  8.2754E-13  9.0
 -3000025    2    1    2    0    0 -7.04833337631E+01  1.06969373325E+02 -1.43571559300E+02  2.50168796534E+02  1.59878975952E+02  3.4442E-13  9.0
        2    1    3    3  500    0  2.76679933721E+01 -9.44401042138E+01  1.07569237416E+02  1.45792976471E+02  3.00000000000E-03  0.0000E+00  9.0
       -1    1    3    3    0  500 -9.76266108207E+00  9.61966706972E+00 -1.20179903824E-01  1.37062764508E+01  5.00000000000E-03  0.0000E+00  9.0
  3000022    1    3    3    0    0  5.25780014733E+01 -2.21489361809E+01  3.61224598978E+01  9.03319086588E+01  6.00000000000E+01  0.0000E+00  9.0
       -4    1    4    4    0  504 -2.72387963350E+01  6.67221757137E+01 -3.64866435384E+01  8.07912832084E+01  1.46817165330E+00  0.0000E+00  9.0
        3    1    4    4  504    0 -4.09826682680E+01 -1.89029281066E+01 -2.43953464924E+01  5.13037300774E+01  2.00000000000E-01  0.0000E+00  9.0
  3000022    1    4    4    0    0 -2.26186915966E+00  5.91501257189E+01 -8.26895692690E+01  1.18073783248E+02  6.00000000000E+01  0.0000E+00  9.0
</event>
<event>
10    1   3.4312288E-02   5.0000000E+02  -1.0000000E+00   9.3490000E-02
       11   -1    0    0    0    0  0.00000000000E+00  0.00000000000E+00  2.49999995980E+02  2.49999995980E+02  0.00000000000E+00  0.0000E+00  9.0
      -11   -1    0    0    0    0  0.00000000000E+00  0.00000000000E+00 -2.49994555490E+02  2.49994555490E+02  0.00000000000E+00  0.0000E+00  9.0
  3000025    2    1    2    0    0 -1.64891089613E+02 -9.77344770493E+01 -1.29936075600E+01  2.49920530680E+02  1.59844732099E+02  2.3360E-12  9.0
 -3000025    2    1    2    0    0  1.64891089613E+02  9.77344770493E+01  1.29990480540E+01  2.50074020798E+02  1.60084169079E+02  1.9331E-12  9.0
        2    1    3    3  500    0 -8.59856220690E+01 -4.90984797056E+01  1.00335417944E+00  9.90211827873E+01  3.00000000000E-03  0.0000E+00  9.0
       -1    1    3    3    0  500 -1.11988382115E+01  1.78350914018E+01  2.44201048152E+01  3.22466433413E+01  5.00000000000E-03  0.0000E+00  9.0
  3000022    1    3    3    0    0 -6.77066293337E+01 -6.64710887456E+01 -3.84170665545E+01  1.18652704552E+02  6.00000000000E+01  0.0000E+00  9.0
       -4    1    4    4    0  504  5.14608607066E+01  6.13370840808E+01 -2.33965809132E+01  8.34266959351E+01  1.46817165330E+00  0.0000E+00  9.0
        3    1    4    4  504    0 -1.05360846863E+01 -1.24079656914E+01  6.35886562011E+00  1.74768951788E+01  2.00000000000E-01  0.0000E+00  9.0
  3000022    1    4    4    0    0  1.23966313593E+02  4.88053586603E+01  3.00367633467E+01  1.49170429684E+02  6.00000000000E+01  0.0000E+00  9.0
</event>
<event>
10    1   3.4312288E-02   4.9540000E+02  -1.0000000E+00   9.3590000E-02
       11   -1    0    0    0    0  0.00000000000E+00  0.00000000000E+00  2.49129390770E+02  2.49129390770E+02  0.00000000000E+00  0.0000E+00  9.0
      -11   -1    0    0    0    0  0.00000000000E+00  0.00000000000E+00 -2.46321099900E+02  2.46321099900E+02  0.00000000000E+00  0.0000E+00  9.0
  3000025    2    1    2    0    0 -3.75717483660E+01  9.21796415655E+01 -1.59362319775E+02  2.46802139532E+02  1.60019450440E+02  1.1211E-12  9.0
 -3000025    2    1    2    0    0  3.75717483660E+01 -9.21796415655E+01  1.62170610645E+02  2.48648351142E+02  1.60056155690E+02  1.9631E-12  9.0
        4    1    3    3  500    0 -2.15300200949E+00  6.91338381506E+01 -1.13594797187E+02  1.33003971637E+02  1.46817165330E+00  0.0000E+00  9.0
       -3    1    3    3    0  500 -4.05847577328E+01  1.55945481014E+01 -1.77676344334E+01  4.69685141778E+01  2.00000000000E-01  0.0000E+00  9.0
  3000022    1    3    3    0    0  5.16601137640E+00  7.45125531237E+00 -2.79998881527E+01  6.68296537162E+01  6.00000000000E+01  0.0000E+00  9.0
       -2    1    4    4    0  504 -2.60412966022E+01 -2.07481883999E+01  6.72244738015E+00  3.39680402493E+01  3.00000000000E-03  0.0000E+00  9.0
        1    1    4    4  504    0  5.21611772927E+01 -6.68704282263E+01  7.25431595781E+01  1.11601759011E+02  5.00000000000E-03  0.0000E+00  9.0
  3000022    1    4    4    0    0  1.14518676755E+01 -4.56102494018E+00  8.29050036875E+01  1.03078551882E+02  6.00000000000E+01  0.0000E+00  9.0
</event>
<event>
10    1   3.4312288E-02   4.9600000E+02  -1.0000000E+00   9.3580000E-02
       11   -1    0    0    0    0  0.00000000000E+00  0.00000000000E+00  2.50000000000E+02  2.50000000000E+02  0.00000000000E+00  0.0000E+00  9.0
      -11   -1    0    0    0    0  0.00000000000E+00  0.00000000000E+00 -2.45986230860E+02  2.45986230860E+02  0.00000000000E+00  0.0000E+00  9.0
  3000025    2    1    2    0    0  7.95069450163E+01 -1.23191722283E+02  1.22030052005E+02  2.48953559492E+02  1.59965578942E+02  3.4449E-12  9.0
 -3000025    2    1    2    0    0 -7.95069450163E+01  1.23191722283E+02 -1.18016282865E+02  2.47032671366E+02  1.59999196736E+02  8.7822E-13  9.0
        4    1    3    3  500    0 -2.69849319967E+01 -2.28017244354E+01  2.53266216901E+01  4.34936603004E+01  1.46817165330E+00  0.0000E+00  9.0
       -3    1    3    3    0  500  5.16950045153E+01 -7.52264953182E+01  2.61620609036E+01  9.49520537978E+01  2.00000000000E-01  0.0000E+00  9.0
  3000022    1    3    3    0    0  5.47968724977E+01 -2.51635025292E+01  7.05413694117E+01  1.10507845394E+02  6.00000000000E+01  0.0000E+00  9.0
       -4    1    4    4    0  504 -1.29327296388E+01 -1.86115334534E+01 -1.79968276440E+01  2.89773360861E+01  1.46817165330E+00  0.0000E+00  9.0
        3    1    4    4  504    0 -4.30551799530E+01  6.08192598396E+01 -8.57108405610E+01  1.13574288806E+02  2.00000000000E-01  0.0000E+00  9.0
  3000022    1    4    4    0    0 -2.35190354250E+01  8.09839958978E+01 -1.43086146602E+01  1.04481046474E+02  6.00000000000E+01  0.0000E+00  9.0
</event>
<event>
10    1   3.4312288E-02   4.9530000E+02  -1.0000000E+00   9.3600000E-02
       11   -1    0    0    0    0  0.00000000000E+00  0.00000000000E+00  2.45300353010E+02  2.45300353010E+02  0.00000000000E+00  0.0000E+00  9.0
      -11   -1    0    0    0    0  0.00000000000E+00  0.00000000000E+00 -2.49999992470E+02  2.49999992470E+02  0.00000000000E+00  0.0000E+00  9.0
  3000025    2    1    2    0    0  1.34810314617E+02  7.91396647392E+01 -1.08476919987E+02  2.48626536096E+02  1.60034386364E+02  2.0210E-13  9.0
 -3000025    2    1    2    0    0 -1.34810314617E+02 -7.91396647392E+01  1.03777280517E+02  2.46673809382E+02  1.60129125462E+02  5.9040E-13  9.0
       14    1    3    3    0    0 -1.45719227265E+01 -5.71540597728E+00 -2.04417985915E+01  2.57463381297E+01  0.00000000000E+00  0.0000E+00  9.0
      -13    1    3    3    0    0  6.90247097423E+01  2.85247755113E+01  5.12540063842E+00  7.48622353204E+01  1.05700000000E-01  0.0000E+00  9.0
  3000022    1    3    3    0    0  8.03575276019E+01  5.63302952048E+01 -9.31605220337E+01  1.48017962646E+02  6.00000000000E+01  0.0000E+00  9.0
       -2    1    4    4    0  500  1.31914972525E+01 -3.41722384623E+01  1.39001380203E+01  3.91787101277E+01  3.00000000000E-03  0.0000E+00  9.0
        1    1    4    4  500    0 -4.73284955678E+01  2.02205180888E+01  3.67854631405E+01  6.32615694395E+01  5.00000000000E-03  0.0000E+00  9.0
  3000022    1    4    4    0    0 -1.00673316302E+02 -6.51879443667E+01  5.30916793561E+01  1.44233529815E+02  6.00000000000E+01  0.0000E+00  9.0
</event>
<event>
10    1   3.4312288E-02   4.2470000E+02  -1.0000000E+00   9.5330000E-02
       11   -1    0    0    0    0  0.00000000000E+00  0.00000000000E+00  2.49877447290E+02  2.49877447290E+02  0.00000000000E+00  0.0000E+00  9.0
      -11   -1    0    0    0    0  0.00000000000E+00  0.00000000000E+00 -1.80422989810E+02  1.80422989810E+02  0.00000000000E+00  0.0000E+00  9.0
  3000025    2    1    2    0    0  2.22564518119E+01 -1.36638573891E+02  5.11906558473E+01  2.17619558700E+02  1.59913537765E+02  1.5659E-13  9.0
 -3000025    2    1    2    0    0 -2.22564518119E+01  1.36638573891E+02  1.82638016347E+01  2.12680878400E+02  1.60418640017E+02  1.0474E-13  9.0
        4    1    3    3  500    0  2.64400268504E+01 -9.30069655926E+01  1.57239894995E+01  9.79733129090E+01  1.46817165330E+00  0.0000E+00  9.0
       -3    1    3    3    0  500 -1.48656763242E+01 -1.71954880048E+01  4.70129732550E+01  5.22200420775E+01  2.00000000000E-01  0.0000E+00  9.0
  3000022    1    3    3    0    0  1.06821012854E+01 -2.64361202949E+01 -1.15463069076E+01  6.74262037143E+01  6.00000000000E+01  0.0000E+00  9.0
      -14    1    4    4    0    0 -3.01414697439E+01  7.55046493692E-01  3.08077729001E+01  4.31068111160E+01  0.00000000000E+00  0.0000E+00  9.0
       13    1    4    4    0    0 -1.73250095833E+01  6.79828874895E+01 -2.54708354072E+01  7.46364761849E+01  1.05700000000E-01  0.0000E+00  9.0
  3000022    1    4    4    0    0  2.52100275153E+01  6.79006399081E+01  1.29268641419E+01  9.49375910996E+01  6.00000000000E+01  0.0000E+00  9.0
</event>
<event>
10    1   3.4312288E-02   4.6420000E+02  -1.0000000E+00   9.4320000E-02
       11   -1    0    0    0    0  0.00000000000E+00  0.00000000000E+00  2.47842730320E+02  2.47842730320E+02  0.00000000000E+00  0.0000E+00  9.0
      -11   -1    0    0    0    0  0.00000000000E+00  0.00000000000E+00 -2.17331124360E+02  2.17331124360E+02  0.00000000000E+00  0.0000E+00  9.0
  3000025    2    1    2    0    0  8.40379642089E+01  1.04602325017E+02  1.16771956840E+02  2.39228171834E+02  1.59970004899E+02  3.5665E-13  9.0
 -3000025    2    1    2    0    0 -8.40379642089E+01 -1.04602325017E+02 -8.62603508824E+01  2.25945682837E+02  1.60020553777E+02  3.9859E-13  9.0
        2    1    3    3  500    0 -4.24301522829E+00  2.84538886823E+01 -1.00096079596E+01  3.04601250798E+01  3.00000000000E-03  0.0000E+00  9.0
       -1    1    3    3    0  500  7.19934832624E+01  6.60271460036E+00  4.93321494444E+01  8.75232452903E+01  5.00000000000E-03  0.0000E+00  9.0
  3000022    1    3    3    0    0  1.62874961747E+01  6.95457217338E+01  7.74494153549E+01  1.21244801464E+02  6.00000000000E+01  0.0000E+00  9.0
       -2    1    4    4    0  504 -5.21151995500E+01 -6.37804552265E+01 -7.36797108732E+01  1.10510815292E+02  3.00000000000E-03  0.0000E+00  9.0
        1    1    4    4  504    0  6.92407689551E+00  1.71752859213E+01 -1.42589965792E+01  2.33720408989E+01  5.00000000000E-03  0.0000E+00  9.0
  3000022    1    4    4    0    0 -3.88468415546E+01 -5.79971557115E+01  1.67835656961E+00  9.20628266466E+01  6.00000000000E+01  0.0000E+00  9.0
</event>
<event>
10    1   3.4312288E-02   4.9790000E+02  -1.0000000E+00   9.3540000E-02
       11   -1    0    0    0    0  0.00000000000E+00  0.00000000000E+00  2.47912707580E+02  2.47912707580E+02  0.00000000000E+00  0.0000E+00  9.0
      -11   -1    0    0    0    0  0.00000000000E+00  0.00000000000E+00 -2.49990638700E+02  2.49990638700E+02  0.00000000000E+00  0.0000E+00  9.0
  3000025    2    1    2    0    0  1.63463763461E+01 -1.87583500602E+02 -3.07143303722E+01  2.48986918500E+02  1.59988567642E+02  4.1804E-13  9.0
 -3000025    2    1    2    0    0 -1.63463763461E+01  1.87583500602E+02  2.86363992582E+01  2.48916427779E+02  1.60264066273E+02  2.9426E-13  9.0
        4    1    3    3  500    0 -2.20380552940E+01 -6.68036174568E+01  5.74411098087E+00  7.05942598617E+01  1.46817165330E+00  0.0000E+00  9.0
       -3    1    3    3    0  500  4.57727750474E+01 -2.08350605199E+01  1.23713792791E+01  5.17912898823E+01  2.00000000000E-01  0.0000E+00  9.0
  3000022    1    3    3    0    0 -7.38834340725E+00 -9.99448226250E+01 -4.88298206322E+01  1.26601368756E+02  6.00000000000E+01  0.0000E+00  9.0
       -4    1    4    4    0  504 -1.07157703772E+01  6.42750534862E+01  5.74539299276E+01  8.68862464810E+01  1.46817165330E+00  0.0000E+00  9.0
        3    1    4    4  504    0 -2.63453847045E+01  4.51809938594E+01 -3.20050466970E+01  6.13169186720E+01  2.00000000000E-01  0.0000E+00  9.0
  3000022    1    4    4    0    0  2.07147787357E+01  7.81274532561E+01  3.18751602728E+00  1.00713262626E+02  6.00000000000E+01  0.0000E+00  9.0
</event>
<event>
10    1   3.4312288E-02   4.9890000E+02  -1.0000000E+00   9.3510000E-02
       11   -1    0    0    0    0  0.00000000000E+00  0.00000000000E+00  2.48959553930E+02  2.48959553930E+02  0.00000000000E+00  0.0000E+00  9.0
      -11   -1    0    0    0    0  0.00000000000E+00  0.00000000000E+00 -2.49981732190E+02  2.49981732190E+02  0.00000000000E+00  0.0000E+00  9.0
  3000025    2    1    2    0    0  6.38582367722E+01 -1.79077623726E+02 -2.29862445447E+01  2.49582893750E+02  1.60051815645E+02  2.3898E-12  9.0
 -3000025    2    1    2    0    0 -6.38582367722E+01  1.79077623726E+02  2.19640662837E+01  2.49358392370E+02  1.59845293690E+02  8.5531E-13  9.0
        2    1    3    3  500    0  3.97387262746E+01 -1.08786490758E+02 -2.79889769339E+01  1.19151373371E+02  3.00000000000E-03  0.0000E+00  9.0
       -1    1    3    3    0  500 -2.87803851525E+01 -1.66807711480E+01  7.52232295990E+00  3.41048979375E+01  5.00000000000E-03  0.0000E+00  9.0
  3000022    1    3    3    0    0  5.28998956500E+01 -5.36103618196E+01 -2.51959057096E+00  9.63266224408E+01  6.00000000000E+01  0.0000E+00  9.0
       -4    1    4    4    0  504 -1.92054983136E+01  6.82369771468E+01  5.11198782370E+01  8.74101464052E+01  1.46817165330E+00  0.0000E+00  9.0
        3    1    4    4  504    0  1.49196558271E+01  1.68156617286E+00 -1.79754575605E+01  2.34218032889E+01  2.00000000000E-01  0.0000E+00  9.0
  3000022    1    4    4    0    0 -5.95723942865E+01  1.09159080406E+02 -1.11803543927E+01  1.38526442676E+02  6.00000000000E+01  0.0000E+00  9.0
</event>
<event>
10    1   3.4312288E-02   4.5940000E+02  -1.0000000E+00   9.4440000E-02
       11   -1    0    0    0    0  0.00000000000E+00  0.00000000000E+00  2.49999908150E+02  2.49999908150E+02  0.00000000000E+00  0.0000E+00  9.0
      -11   -1    0    0    0    0  0.00000000000E+00  0.00000000000E+00 -2.11029302630E+02  2.11029302630E+02  0.00000000000E+00  0.0000E+00  9.0
  3000025    2    1    2    0    0  1.20822656134E+02 -6.34718921722E+01  1.11988424351E+02  2.38312870243E+02  1.60077548718E+02  1.6209E-12  9.0
 -3000025    2    1    2    0    0 -1.20822656134E+02  6.34718921722E+01 -7.30178188280E+01  2.22716340544E+02  1.60137975346E+02  7.4359E-12  9.0
        2    1    3    3  500    0  3.64122901573E+01  2.42134805205E+01  8.61771398499E+00  4.45691879749E+01  3.00000000000E-03  0.0000E+00  9.0
       -1    1    3    3    0  500  2.69841087340E+01 -5.24362646775E+01  3.38598699531E+00  5.90691874875E+01  5.00000000000E-03  0.0000E+00  9.0
  3000022    1    3    3    0    0  5.74262572424E+01 -3.52491080155E+01  9.99847233718E+01  1.34674494781E+02  6.00000000000E+01  0.0000E+00  9.0
       -2    1    4    4    0  504  3.53361580650E+00 -2.02959319943E+01 -1.03341924247E+01  2.30479248145E+01  3.00000000000E-03  0.0000E+00  9.0
        1    1    4    4  504    0 -3.78551641998E+01  5.74864066355E+01  9.30209139291E+00  6.94566723486E+01  5.00000000000E-03  0.0000E+00  9.0
  3000022    1    4    4    0    0 -8.65011077412E+01  2.62814175320E+01 -7.19857177963E+01  1.30211743382E+02  6.00000000000E+01  0.0000E+00  9.0
</event>
<event>
10    1   3.4312288E-02   5.0000000E+02  -1.0000000E+00   9.3490000E-02
       11   -1    0    0    0    0  0.00000000000E+00  0.00000000000E+00  2.49999734610E+02  2.49999734610E+02  0.00000000000E+00  0.0000E+00  9.0
      -11   -1    0    0    0    0  0.00000000000E+00  0.00000000000E+00 -2.49999999970E+02  2.49999999970E+02  0.00000000000E+00  0.0000E+00  9.0
  3000025    2    1    2    0    0 -8.59428591997E+01 -1.20889569431E+02  1.22228521075E+02  2.49959778132E+02  1.59811189455E+02  1.3017E-12  9.0
 -3000025    2    1    2    0    0  8.59428591997E+01  1.20889569431E+02 -1.22228786445E+02  2.50039956445E+02  1.59936364028E+02  1.3729E-12  9.0
        4    1    3    3  500    0 -2.32459880564E+01 -4.91572425901E+00 -7.87943338673E+00  2.50755120428E+01  1.46817165330E+00  0.0000E+00  9.0
       -3    1    3    3    0  500 -5.29783563399E-01 -9.40282209657E+01  7.26874059778E+01  1.18849005029E+02  2.00000000000E-01  0.0000E+00  9.0
  3000022    1    3    3    0    0 -6.21670875788E+01 -2.19456242058E+01  5.74205484840E+01  1.06035261060E+02  6.00000000000E+01  0.0000E+00  9.0
       -2    1    4    4    0  504  1.64726125417E+01  6.14615888449E+01 -3.85437006819E+01  7.43941579598E+01  3.00000000000E-03  0.0000E+00  9.0
        1    1    4    4  504    0  6.15121311236E+01  3.32162377418E+00 -5.30937843133E+00  6.18301300678E+01  5.00000000000E-03  0.0000E+00  9.0
  3000022    1    4    4    0    0  7.95811553518E+00  5.61063568117E+01 -7.83757073315E+01  1.13815668417E+02  6.00000000000E+01  0.0000E+00  9.0
</event>
<event>
10    1   3.4312288E-02   4.9960000E+02  -1.0000000E+00   9.3500000E-02
       11   -1    0    0    0    0  0.00000000000E+00  0.00000000000E+00  2.49640658640E+02  2.49640658640E+02  0.00000000000E+00  0.0000E+00  9.0
      -11   -1    0    0    0    0  0.00000000000E+00  0.00000000000E+00 -2.50000000000E+02  2.50000000000E+02  0.00000000000E+00  0.0000E+00  9.0
  3000025    2    1    2    0    0  1.10845431584E+02 -1.14702699851E+02  1.06379918115E+02  2.49799082663E+02  1.60123313933E+02  1.0780E-12  9.0
 -3000025    2    1    2    0    0 -1.10845431584E+02  1.14702699851E+02 -1.06739259475E+02  2.49841575980E+02  1.59950381427E+02  1.2633E-12  9.0
        2    1    3    3  500    0  9.13842757085E+01 -9.45066293660E+01  4.43362613682E+01  1.38738217237E+02  3.00000000000E-03  0.0000E+00  9.0
       -1    1    3    3    0  500 -4.18443397597E+00  4.21541496610E+00 -9.81239923965E+00  1.14700660362E+01  5.00000000000E-03  0.0000E+00  9.0
  3000022    1    3    3    0    0  2.36455898513E+01 -2.44114854524E+01  7.18560559856E+01  9.95907993904E+01  6.00000000000E+01  0.0000E+00  9.0
       -2    1    4    4    0  504 -4.02792428451E+01  2.21110688382E+00  1.12585944446E+01  4.18815276189E+01  3.00000000000E-03  0.0000E+00  9.0
        1    1    4    4  504    0  1.68549212193E+01  1.92283114397E+01 -3.75862163786E+01  4.54592126723E+01  5.00000000000E-03  0.0000E+00  9.0
  3000022    1    4    4    0    0 -8.74211099578E+01  9.32632815275E+01 -8.04116375395E+01  1.62500835688E+02  6.00000000000E+01  0.0000E+00  9.0
</event>
<event>
10    1   3.4312288E-02   4.9940000E+02  -1.0000000E+00   9.3500000E-02
       11   -1    0    0    0    0  0.00000000000E+00  0.00000000000E+00  2.49999999890E+02  2.49999999890E+02  0.00000000000E+00  0.0000E+00  9.0
      -11   -1    0    0    0    0  0.00000000000E+00  0.00000000000E+00 -2.49444587690E+02  2.49444587690E+02  0.00000000000E+00  0.0000E+00  9.0
  3000025    2    1    2    0    0  1.75746946537E+02  7.41972124547E+00  7.62904434500E+01  2.49968062686E+02  1.60380045894E+02  8.1137E-13  9.0
 -3000025    2    1    2    0    0 -1.75746946537E+02 -7.41972124547E+00 -7.57350312560E+01  2.49476524895E+02  1.59877140436E+02  5.7965E-14  9.0
        4    1    3    3  500    0  6.73655006576E+01 -3.32798390681E+01  4.35755216495E+00  7.52781652016E+01  1.46817165330E+00  0.0000E+00  9.0
       -3    1    3    3    0  500  8.92512847976E+01  2.59899162857E+01  5.43092159934E+01  1.07660570909E+02  2.00000000000E-01  0.0000E+00  9.0
  3000022    1    3    3    0    0  1.91301610816E+01  1.47096440279E+01  1.76236752921E+01  6.70293265761E+01  6.00000000000E+01  0.0000E+00  9.0
       -4    1    4    4    0  504 -5.68233379395E+01 -5.52512616744E+01 -1.75382981913E+00  7.92895018160E+01  1.46817165330E+00  0.0000E+00  9.0
        3    1    4    4  504    0 -5.00489753083E+01  1.33981570123E+01 -4.42649930147E+01  6.81457272859E+01  2.00000000000E-01  0.0000E+00  9.0
  3000022    1    4    4    0    0 -6.88746332890E+01  3.44333834156E+01 -2.97162084216E+01  1.02041295793E+02  6.00000000000E+01  0.0000E+00  9.0
</event>
<event>
10    1   3.4312288E-02   4.8790000E+02  -1.0000000E+00   9.3760000E-02
       11   -1    0    0    0    0  0.00000000000E+00  0.00000000000E+00  2.39479486530E+02  2.39479486530E+02  0.00000000000E+00  0.0000E+00  9.0
      -11   -1    0    0    0    0  0.00000000000E+00  0.00000000000E+00 -2.48536032660E+02  2.48536032660E+02  0.00000000000E+00  0.0000E+00  9.0
  3000025    2    1    2    0    0 -1.38851343984E+02 -8.36192478994E+01  8.37691961211E+01  2.42248850117E+02  1.59359194334E+02  1.9712E-12  9.0
 -3000025    2    1    2    0    0  1.38851343984E+02  8.36192478994E+01 -9.28257422521E+01  2.45766669067E+02  1.59727151274E+02  2.1268E-12  9.0
        2    1    3    3  500    0 -9.76859133689E+01 -2.82814888314E+01  2.03060492775E+01  1.03704946495E+02  3.00000000000E-03  0.0000E+00  9.0
       -1    1    3    3    0  500  8.64487465726E+00  1.55277956187E+01  8.51448248733E+00  1.97064134647E+01  5.00000000000E-03  0.0000E+00  9.0
  3000022    1    3    3    0    0 -4.98103052739E+01 -7.08655546867E+01  5.49486643557E+01  1.18837490158E+02  6.00000000000E+01  0.0000E+00  9.0
       -4    1    4    4    0  504  1.02960779124E+02  4.51175002311E+01 -3.05444494094E+01  1.16497338092E+02  1.46817165330E+00  0.0000E+00  9.0
        3    1    4    4  504    0 -7.94037159877E+00  3.81484097582E+01 -2.08588480104E+01  4.41982149926E+01  2.00000000000E-01  0.0000E+00  9.0
  3000022    1    4    4    0    0  4.38309364600E+01  3.53337910241E-01 -4.14224448323E+01  8.50711159826E+01  6.00000000000E+01  0.0000E+00  9.0
</event>
<event>
10    1   3.4312288E-02   4.9950000E+02  -1.0000000E+00   9.3500000E-02
       11   -1    0    0    0    0  0.00000000000E+00  0.00000000000E+00  2.49977663820E+02  2.49977663820E+02  0.00000000000E+00  0.0000E+00  9.0
      -11   -1    0    0    0    0  0.00000000000E+00  0.00000000000E+00 -2.49493955910E+02  2.49493955910E+02  0.00000000000E+00  0.0000E+00  9.0
  3000025    2    1    2    0    0 -1.13482745408E+02 -1.53455563528E+02 -1.85151268725E+01  2.49677274599E+02  1.59903058272E+02  7.0834E-13  9.0
 -3000025    2    1    2    0    0  1.13482745408E+02  1.53455563528E+02  1.89988347785E+01  2.49794345131E+02  1.60029108769E+02  7.7362E-13  9.0
        4    1    3    3  500    0 -1.48810581941E+01 -3.10429025982E+01  2.95461276067E+01  4.53898323334E+01  1.46817165330E+00  0.0000E+00  9.0
       -3    1    3    3    0  500 -9.80083415732E+00 -1.34168572208E+01 -4.86694784638E+01  5.14278770882E+01  2.00000000000E-01  0.0000E+00  9.0
  3000022    1    3    3    0    0 -8.88008530565E+01 -1.08995803709E+02  6.08223984597E-01  1.52859565177E+02  6.00000000000E+01  0.0000E+00  9.0
       -2    1    4    4    0  504 -9.70737378160E+00  6.11515182610E+01  1.22958759012E+01  6.31263008939E+01  3.00000000000E-03  0.0000E+00  9.0
        1    1    4    4  504    0  4.97980862881E+01  1.75364027387E+01  3.41190101502E+01  6.28608120978E+01  5.00000000000E-03  0.0000E+00  9.0
  3000022    1    4    4    0    0  7.33920329018E+01  7.47676425281E+01 -2.74160512728E+01  1.23807232140E+02  6.00000000000E+01  0.0000E+00  9.0
</event>
<event>
10    1   3.4312288E-02   4.0810000E+02  -1.0000000E+00   9.5790000E-02
       11   -1    0    0    0    0  0.00000000000E+00  0.00000000000E+00  2.21690921180E+02  2.21690921180E+02  0.00000000000E+00  0.0000E+00  9.0
      -11   -1    0    0    0    0  0.00000000000E+00  0.00000000000E+00 -1.87839683060E+02  1.87839683060E+02  0.00000000000E+00  0.0000E+00  9.0
  3000025    2    1    2    0    0  9.21751991583E+01 -7.97464307296E+01 -1.75228305117E+01  2.02015012665E+02  1.60147604412E+02  2.2632E-12  9.0
 -3000025    2    1    2    0    0 -9.21751991583E+01  7.97464307296E+01  5.13740686347E+01  2.07515591580E+02  1.59898922031E+02  4.3216E-13  9.0
        2    1    3    3  500    0 -2.35503562825E+01  1.31882064956E+01 -2.58874602093E+00  2.71154879462E+01  3.00000000000E-03  0.0000E+00  9.0
       -1    1    3    3    0  500  5.22601631578E+01 -2.46875947821E+01  1.57221281595E+01  5.98981412756E+01  5.00000000000E-03  0.0000E+00  9.0
  3000022    1    3    3    0    0  6.34653922830E+01 -6.82470424436E+01 -3.06562126499E+01  1.15001383444E+02  6.00000000000E+01  0.0000E+00  9.0
       -2    1    4    4    0  504 -6.26574716238E+01  1.98747580601E+01  5.36849563467E+01  8.48707211303E+01  3.00000000000E-03  0.0000E+00  9.0
        1    1    4    4  504    0 -1.24014734624E+01  5.88945182727E+01  3.45956034434E-01  6.01870462573E+01  5.00000000000E-03  0.0000E+00  9.0
  3000022    1    4    4    0    0 -1.71162540733E+01  9.77154397245E-01 -2.65684374634E+00  6.24578241929E+01  6.00000000000E+01  0.0000E+00  9.0
</event>
<event>
10    1   3.4312288E-02   4.8420000E+02  -1.0000000E+00   9.3850000E-02
       11   -1    0    0    0    0  0.00000000000E+00  0.00000000000E+00  2.34431901000E+02  2.34431901000E+02  0.00000000000E+00  0.0000E+00  9.0
      -11   -1    0    0    0    0  0.00000000000E+00  0.00000000000E+00 -2.49999998720E+02  2.49999998720E+02  0.00000000000E+00  0.0000E+00  9.0
  3000025    2    1    2    0    0 -3.23086722098E+01 -1.45891907540E+02  9.59661188499E+01  2.39006631374E+02  1.59957415859E+02  4.8458E-13  9.0
 -3000025    2    1    2    0    0  3.23086722098E+01  1.45891907540E+02 -1.11534216560E+02  2.45425268342E+02  1.59578763912E+02  6.5772E-13  9.0
        2    1    3    3  500    0  9.66003035873E+00  1.24619144848E+01  1.75728309755E+01  2.36097415626E+01  3.00000000000E-03  0.0000E+00  9.0
       -1    1    3    3    0  500 -2.45540699273E+01 -7.62889068776E+01 -8.42011611939E+00  8.05841053995E+01  5.00000000000E-03  0.0000E+00  9.0
  3000022    1    3    3    0    0 -1.74146326409E+01 -8.20649151461E+01  8.68134039929E+01  1.34812784412E+02  6.00000000000E+01  0.0000E+00  9.0
       -4    1    4    4    0  504  2.92374027213E+01  8.31575824097E+01 -3.23649594805E+01  9.39130201851E+01  1.46817165330E+00  0.0000E+00  9.0
        3    1    4    4  504    0  6.02074558048E+00 -1.56731989082E+01  9.05214945867E+00  1.90756376351E+01  2.00000000000E-01  0.0000E+00  9.0
  3000022    1    4    4    0    0 -2.94947609206E+00  7.84075240383E+01 -8.82214065383E+01  1.32436610522E+02  6.00000000000E+01  0.0000E+00  9.0
</event>
<event>
10    1   3.4312288E-02   4.9500000E+02  -1.0000000E+00   9.3600000E-02
       11   -1    0    0    0    0  0.00000000000E+00  0.00000000000E+00  2.45015061570E+02  2.45015061570E+02  0.00000000000E+00  0.0000E+00  9.0
      -11   -1    0    0    0    0  0.00000000000E+00  0.00000000000E+00 -2.49999994620E+02  2.49999994620E+02  0.00000000000E+00  0.0000E+00  9.0
  3000025    2    1    2    0    0  1.00855682806E+02 -1.27256328289E+02  9.39824711168E+01  2.46601139165E+02  1.60041791781E+02  5.6780E-12  9.0
 -3000025    2    1    2    0    0 -1.00855682806E+02  1.27256328289E+02 -9.89674041598E+01  2.48413917027E+02  1.59840186570E+02  2.5407E-12  9.0
       14    1    3    3    0    0  1.40298328486E+01  1.21165708198E+01 -1.07705243022E+01  2.14394890782E+01  0.00000000000E+00  0.0000E+00  9.0
      -13    1    3    3    0    0  1.83131248064E+01 -9.70057658019E+01  4.75991915794E+01  1.09595544392E+02  1.05700000000E-01  0.0000E+00  9.0
  3000022    1    3    3    0    0  6.85127251506E+01 -4.23671333083E+01  5.71538038397E+01  1.15566105696E+02  6.00000000000E+01  0.0000E+00  9.0
       -2    1    4    4    0  500 -3.86392601113E+01 -9.97606792779E+00 -4.28890218850E+01  5.85831252197E+01  3.00000000000E-03  0.0000E+00  9.0
        1    1    4    4  500    0 -3.15487247731E+01  4.85967686754E+01  1.22163160783E+01  5.92132279480E+01  5.00000000000E-03  0.0000E+00  9.0
  3000022    1    4    4    0    0 -3.06676979220E+01  8.86356275416E+01 -6.82946983530E+01  1.30617563860E+02  6.00000000000E+01  0.0000E+00  9.0
</event>
<event>
10    1   3.4312288E-02   4.8510000E+02  -1.0000000E+00   9.3830000E-02
       11   -1    0    0    0    0  0.00000000000E+00  0.00000000000E+00  2.38442692050E+02  2.38442692050E+02  0.00000000000E+00  0.0000E+00  9.0
      -11   -1    0    0    0    0  0.00000000000E+00  0.00000000000E+00 -2.46689362050E+02  2.46689362050E+02  0.00000000000E+00  0.0000E+00  9.0
  3000025    2    1    2    0    0 -4.14985890312E+01 -7.26451598987E+01  1.57277525145E+02  2.40262218542E+02  1.61214954625E+02  2.8297E-12  9.0
 -3000025    2    1    2    0    0  4.14985890312E+01  7.26451598987E+01 -1.65524195155E+02  2.44869835552E+02  1.59885975099E+02  1.8446E-14  9.0
        4    1    3    3  500    0 -2.99410807086E+01  1.70189878555E+01  6.68555537003E+01  7.52192452116E+01  1.46817165330E+00  0.0000E+00  9.0
       -3    1    3    3    0  500  1.26299748648E+01 -1.90057693764E+01 -1.11683967127E+01  2.54068616678E+01  2.00000000000E-01  0.0000E+00  9.0
  3000022    1    3    3    0    0 -2.41874831871E+01 -7.06583783779E+01  1.01590368158E+02  1.39636111663E+02  6.00000000000E+01  0.0000E+00  9.0
       -2    1    4    4    0  504  2.85399565355E+01  3.15663002162E+01 -1.15903527582E+02  1.23468976440E+02  3.00000000000E-03  0.0000E+00  9.0
        1    1    4    4  504    0 -1.07654947964E+01  4.32968673381E+01 -1.02256740021E+01  4.57720333097E+01  5.00000000000E-03  0.0000E+00  9.0
  3000022    1    4    4    0    0  2.37241272923E+01 -2.21800765575E+00 -3.93949935716E+01  7.56288258024E+01  6.00000000000E+01  0.0000E+00  9.0
</event>
<event>
10    1   3.4312288E-02   5.0000000E+02  -1.0000000E+00   9.3490000E-02
       11   -1    0    0    0    0  0.00000000000E+00  0.00000000000E+00  2.49999986240E+02  2.49999986240E+02  0.00000000000E+00  0.0000E+00  9.0
      -11   -1    0    0    0    0  0.00000000000E+00  0.00000000000E+00 -2.49986988850E+02  2.49986988850E+02  0.00000000000E+00  0.0000E+00  9.0
  3000025    2    1    2    0    0 -1.68115795459E+02  5.31272166711E+01 -7.68287079653E+01  2.49606183325E+02  1.59107430853E+02  5.9355E-13  9.0
 -3000025    2    1    2    0    0  1.68115795459E+02 -5.31272166711E+01  7.68417053543E+01  2.50380791767E+02  1.60313665575E+02  1.5388E-12  9.0
       14    1    3    3    0    0 -6.85435400714E+01  4.00150158766E+01  1.06594381877E+01  8.00814710379E+01  0.00000000000E+00  0.0000E+00  9.0
      -13    1    3    3    0    0  1.03465542414E+01  9.39614894381E+00 -2.70003698382E+01  3.04034528226E+01  1.05700000000E-01  0.0000E+00  9.0
  3000022    1    3    3    0    0 -1.09918809629E+02  3.71605185169E+00 -6.04877763160E+01  1.39121259465E+02  6.00000000000E+01  0.0000E+00  9.0
      -14    1    4    4    0    0  1.99037106183E+01  3.27965180263E+01  6.45043480407E+00  3.89021516139E+01  0.00000000000E+00  0.0000E+00  9.0
       13    1    4    4    0    0  3.01269038720E+01 -3.97999340418E+01  4.83652482144E+01  6.95044854235E+01  1.05700000000E-01  0.0000E+00  9.0
  3000022    1    4    4    0    0  1.18085180968E+02 -4.61238006557E+01  2.20260223366E+01  1.41974154730E+02  6.00000000000E+01  0.0000E+00  9.0
</event>
<event>
10    1   3.4312288E-02   4.7120000E+02  -1.0000000E+00   9.4150000E-02
       11   -1    0    0    0    0  0.00000000000E+00  0.00000000000E+00  2.28654237400E+02  2.28654237400E+02  0.00000000000E+00  0.0000E+00  9.0
      -11   -1    0    0    0    0  0.00000000000E+00  0.00000000000E+00 -2.42758725310E+02  2.42758725310E+02  0.00000000000E+00  0.0000E+00  9.0
  3000025    2    1    2    0    0  1.11839199380E+02  1.24281557023E+02  3.71214707441E+01  2.34325710091E+02  1.59926929831E+02  7.9453E-13  9.0
 -3000025    2    1    2    0    0 -1.11839199380E+02 -1.24281557023E+02 -5.12259586501E+01  2.37087252612E+02  1.60101076127E+02  1.7313E-12  9.0
        4    1    3    3  500    0  8.45258521925E+00  3.06921156942E+01 -4.38823985836E+01  5.42335006811E+01  1.46817165330E+00  0.0000E+00  9.0
       -3    1    3    3    0  500  2.48240661223E+01  4.12646312672E+01  3.29977578954E+01  5.83771879983E+01  2.00000000000E-01  0.0000E+00  9.0
  3000022    1    3    3    0    0  7.85625480377E+01  5.23248100621E+01  4.80061114323E+01  1.21715021411E+02  6.00000000000E+01  0.0000E+00  9.0
       -2    1    4    4    0  504  6.35457333538E+00 -6.95710956000E+01 -3.43520077647E+01  7.78497167094E+01  3.00000000000E-03  0.0000E+00  9.0
        1    1    4    4  504    0 -3.26917074341E+01  9.54823165966E+00 -1.32590193048E+01  3.65474770772E+01  5.00000000000E-03  0.0000E+00  9.0
  3000022    1    4    4    0    0 -8.55020652815E+01 -6.42586930834E+01 -3.61493158021E+00  1.22690058825E+02  6.00000000000E+01  0.0000E+00  9.0
</event>
<event>
10    1   3.4312288E-02   5.0000000E+02  -1.0000000E+00   9.3490000E-02
       11   -1    0    0    0    0  0.00000000000E+00  0.00000000000E+00  2.50000000000E+02  2.50000000000E+02  0.00000000000E+00  0.0000E+00  9.0
      -11   -1    0    0    0    0  0.00000000000E+00  0.00000000000E+00 -2.49999781590E+02  2.49999781590E+02  0.00000000000E+00  0.0000E+00  9.0
  3000025    2    1    2    0    0  7.13053603945E+01  1.06639966584E+02  1.43565009445E+02  2.50202030669E+02  1.59792388178E+02  3.0776E-12  9.0
 -3000025    2    1    2    0    0 -7.13053603945E+01 -1.06639966584E+02 -1.43564791045E+02  2.49797750922E+02  1.59158820817E+02  3.8660E-13  9.0
        4    1    3    3  500    0  1.22496832129E+01 -2.04375830969E+01  3.42789561985E+01  4.17726215088E+01  1.46817165330E+00  0.0000E+00  9.0
       -3    1    3    3    0  500  2.34441314582E+01  4.91240429919E+01 -3.56099851789E+00  5.45483236236E+01  2.00000000000E-01  0.0000E+00  9.0
  3000022    1    3    3    0    0  3.56115457231E+01  7.79535066877E+01  1.12847051765E+02  1.53881085536E+02  6.00000000000E+01  0.0000E+00  9.0
       -4    1    4    4    0  504  2.97643962563E+01 -3.15410572181E+00 -3.60776979040E+01  4.69001437254E+01  1.46817165330E+00  0.0000E+00  9.0
        3    1    4    4  504    0 -4.25230150044E+01 -6.45990695375E+01 -6.56974860011E+01  1.01476333482E+02  2.00000000000E-01  0.0000E+00  9.0
  3000022    1    4    4    0    0 -5.85467416462E+01 -3.88867913234E+01 -4.17896071398E+01  1.01421273714E+02  6.00000000000E+01  0.0000E+00  9.0
</event>
<event>
10    1   3.4312288E-02   4.8950000E+02  -1.0000000E+00   9.3730000E-02
       11   -1    0    0    0    0  0.00000000000E+00  0.00000000000E+00  2.49194822380E+02  2.49194822380E+02  0.00000000000E+00  0.0000E+00  9.0
      -11   -1    0    0    0    0  0.00000000000E+00  0.00000000000E+00 -2.40375982000E+02  2.40375982000E+02  0.00000000000E+00  0.0000E+00  9.0
  3000025    2    1    2    0    0  1.38949378687E+02 -8.00704256126E+01  9.71951650442E+01  2.46444697253E+02  1.59905865435E+02  4.2202E-12  9.0
 -3000025    2    1    2    0    0 -1.38949378687E+02  8.00704256126E+01 -8.83763246652E+01  2.43126107126E+02  1.59942884524E+02  3.6839E-13  9.0
        4    1    3    3  500    0  5.94254482520E+01 -4.38619054771E+01  1.25673001367E+01  7.49355937640E+01  1.46817165330E+00  0.0000E+00  9.0
       -3    1    3    3    0  500 -2.21075870687E+01 -1.25651250815E+01  2.99972407148E+01  3.93255924916E+01  2.00000000000E-01  0.0000E+00  9.0
  3000022    1    3    3    0    0  1.01631517504E+02 -2.36433950544E+01  5.46306241931E+01  1.32183510997E+02  6.00000000000E+01  0.0000E+00  9.0
       -4    1    4    4    0  504 -8.69403724052E+01  1.29876513325E+01 -6.77299511431E+01  1.10981121147E+02  1.46817165330E+00  0.0000E+00  9.0
        3    1    4    4  504    0 -2.50337102006E+01  5.91507343714E+01 -1.15861597037E+01  6.52669527385E+01  2.00000000000E-01  0.0000E+00  9.0
  3000022    1    4    4    0    0 -2.69752960813E+01  7.93203990864E+00 -9.06021381829E+00  6.68780332413E+01  6.00000000000E+01  0.0000E+00  9.0
</event>
<event>
10    1   3.4312288E-02   5.0000000E+02  -1.0000000E+00   9.3490000E-02
       11   -1    0    0    0    0  0.00000000000E+00  0.00000000000E+00  2.49975520480E+02  2.49975520480E+02  0.00000000000E+00  0.0000E+00  9.0
      -11   -1    0    0    0    0  0.00000000000E+00  0.00000000000E+00 -2.50000000000E+02  2.50000000000E+02  0.00000000000E+00  0.0000E+00  9.0
  3000025    2    1    2    0    0  6.99117894713E+01  1.78235406844E+02  1.51339166665E+01  2.49958521724E+02  1.59983463486E+02  1.7993E-12  9.0
 -3000025    2    1    2    0    0 -6.99117894713E+01 -1.78235406844E+02 -1.51583961885E+01  2.50016998756E+02  1.60072496489E+02  1.0456E-13  9.0
        2    1    3    3  500    0  4.41442750825E+00 -1.05557305161E+01 -2.58775418029E+01  2.82941300576E+01  3.00000000000E-03  0.0000E+00  9.0
       -1    1    3    3    0  500  2.17239704395E+00  7.20738848584E+01  1.48209406299E+01  7.36140237567E+01  5.00000000000E-03  0.0000E+00  9.0
  3000022    1    3    3    0    0  6.33249649191E+01  1.16717252501E+02  2.61905178395E+01  1.48050367910E+02  6.00000000000E+01  0.0000E+00  9.0
       -4    1    4    4    0  504 -8.19743199956E+01 -1.34710098574E+02 -2.71417585374E+01  1.60016969041E+02  1.46817165330E+00  0.0000E+00  9.0
        3    1    4    4  504    0  1.58971579999E+01 -1.41323867786E+01  8.74473440682E+00  2.29990079869E+01  2.00000000000E-01  0.0000E+00  9.0
  3000022    1    4    4    0    0 -3.83462747552E+00 -2.93929214904E+01  3.23862794172E+00  6.70010217278E+01  6.00000000000E+01  0.0000E+00  9.0
</event>
<event>
10    1   3.4312288E-02   5.0000000E+02  -1.0000000E+00   9.3490000E-02
       11   -1    0    0    0    0  0.00000000000E+00  0.00000000000E+00  2.49999637400E+02  2.49999637400E+02  0.00000000000E+00  0.0000E+00  9.0
      -11   -1    0    0    0    0  0.00000000000E+00  0.00000000000E+00 -2.49998344450E+02  2.49998344450E+02  0.00000000000E+00  0.0000E+00  9.0
  3000025    2    1    2    0    0  1.02298305426E+02 -8.69641390569E+01  1.36930164677E+02  2.49858562124E+02  1.60161563095E+02  6.3929E-13  9.0
 -3000025    2    1    2    0    0 -1.02298305426E+02  8.69641390569E+01 -1.36928871727E+02  2.50139419727E+02  1.60600462683E+02  2.9473E-13  9.0
        4    1    3    3  500    0  5.76513702569E+01 -5.40853844500E+01  1.24317727533E+01  8.00350785930E+01  1.46817165330E+00  0.0000E+00  9.0
       -3    1    3    3    0  500  1.62255651374E+01  2.33854219215E+01  3.16713960138E+01  4.25824406057E+01  2.00000000000E-01  0.0000E+00  9.0
  3000022    1    3    3    0    0  2.84213700312E+01 -5.62641765285E+01  9.28269959110E+01  1.27241042925E+02  6.00000000000E+01  0.0000E+00  9.0
      -14    1    4    4    0    0  3.00893111329E+00 -9.32443446336E+00 -5.35996391478E+01  5.44877973613E+01  0.00000000000E+00  0.0000E+00  9.0
       13    1    4    4    0    0 -7.33291210097E+01  3.32299027262E+01 -5.89126366204E+01  9.97601942124E+01  1.05700000000E-01  0.0000E+00  9.0
  3000022    1    4    4    0    0 -3.19781155291E+01  6.30586707936E+01 -2.44165959591E+01  9.58914281533E+01  6.00000000000E+01  0.0000E+00  9.0
</event>
<event>
10    1   3.4312288E-02   4.9250000E+02  -1.0000000E+00   9.3660000E-02
       11   -1    0    0    0    0  0.00000000000E+00  0.00000000000E+00  2.49588083980E+02  2.49588083980E+02  0.00000000000E+00  0.0000E+00  9.0
      -11   -1    0    0    0    0  0.00000000000E+00  0.00000000000E+00 -2.42908429980E+02  2.42908429980E+02  0.00000000000E+00  0.0000E+00  9.0
  3000025    2    1    2    0    0  1.24190722338E+02 -1.19434842686E+02  7.67187361166E+01  2.47327525633E+02  1.59991010067E+02  1.6607E-12  9.0
 -3000025    2    1    2    0    0 -1.24190722338E+02  1.19434842686E+02 -7.00390821166E+01  2.45168988320E+02  1.59732096486E+02  2.1255E-13  9.0
        2    1    3    3  500    0  5.37495676474E+01 -7.45035598952E+01 -1.22407461680E+01  9.26802693948E+01  3.00000000000E-03  0.0000E+00  9.0
       -1    1    3    3    0  500  3.92390049999E+01 -3.81646917581E+01  5.86631220664E+01  8.02346877974E+01  5.00000000000E-03  0.0000E+00  9.0
  3000022    1    3    3    0    0  3.12021496911E+01 -6.76659103256E+00  3.02963602189E+01  7.44125684415E+01  6.00000000000E+01  0.0000E+00  9.0
       -2    1    4    4    0  504  1.75685210621E+01  4.89548032760E+00 -1.33513319897E+01  2.26025824818E+01  3.00000000000E-03  0.0000E+00  9.0
        1    1    4    4  504    0 -7.18341153222E+01  8.67445821296E+00 -3.37072067919E+00  7.24344402361E+01  5.00000000000E-03  0.0000E+00  9.0
  3000022    1    4    4    0    0 -6.99251280786E+01  1.05864904144E+02 -5.33170294478E+01  1.50131965601E+02  6.00000000000E+01  0.0000E+00  9.0
</event>
<event>
10    1   3.4312288E-02   4.9500000E+02  -1.0000000E+00   9.3600000E-02
       11   -1    0    0    0    0  0.00000000000E+00  0.00000000000E+00  2.45262692110E+02  2.45262692110E+02  0.00000000000E+00  0.0000E+00  9.0
      -11   -1    0    0    0    0  0.00000000000E+00  0.00000000000E+00 -2.49767364150E+02  2.49767364150E+02  0.00000000000E+00  0.0000E+00  9.0
  3000025    2    1    2    0    0  1.80892860078E+02 -3.12621350657E+01 -4.66207330356E+01  2.47907275710E+02  1.59953045251E+02  7.5147E-13  9.0
 -3000025    2    1    2    0    0 -1.80892860078E+02  3.12621350657E+01  4.21160609976E+01  2.47122780561E+02  1.59988618851E+02  1.9590E-12  9.0
        2    1    3    3  500    0  8.58984794824E+01  8.36864738059E+00 -1.44887076394E+01  8.75128887332E+01  3.00000000000E-03  0.0000E+00  9.0
       -1    1    3    3    0  500  1.41652166597E+00  5.82113946735E+00 -3.96164422960E+01  4.00668781355E+01  5.00000000000E-03  0.0000E+00  9.0
  3000022    1    3    3    0    0  9.35778589303E+01 -4.54519219136E+01  7.48441690049E+00  1.20327508841E+02  6.00000000000E+01  0.0000E+00  9.0
       -4    1    4    4    0  504  1.27084441568E+01  5.74759921836E-01  1.31060629273E+01  1.83237363906E+01  1.46817165330E+00  0.0000E+00  9.0
        3    1    4    4  504    0 -8.69501579596E+01  3.14409292235E+01 -2.38670953488E+01  9.54910479575E+01  2.00000000000E-01  0.0000E+00  9.0
  3000022    1    4    4    0    0 -1.06651146276E+02 -7.53554079598E-01  5.28770934196E+01  1.33307996213E+02  6.00000000000E+01  0.0000E+00  9.0
</event>
<event>
10    1   3.4312288E-02   4.9780000E+02  -1.0000000E+00   9.3540000E-02
       11   -1    0    0    0    0  0.00000000000E+00  0.00000000000E+00  2.47765880130E+02  2.47765880130E+02  0.00000000000E+00  0.0000E+00  9.0
      -11   -1    0    0    0    0  0.00000000000E+00  0.00000000000E+00 -2.49999999710E+02  2.49999999710E+02  0.00000000000E+00  0.0000E+00  9.0
  3000025    2    1    2    0    0  2.50091879502E+01 -1.65750512422E+02 -9.20421600538E+01  2.49250454517E+02  1.59860370322E+02  8.1561E-12  9.0
 -3000025    2    1    2    0    0 -2.50091879502E+01  1.65750512422E+02  8.98080404718E+01  2.48515425326E+02  1.59986688950E+02  1.0022E-15  9.0
        4    1    3    3  500    0  3.25906194556E+01 -1.34797121971E+02 -5.50749118403E+01  1.49224039653E+02  1.46817165330E+00  0.0000E+00  9.0
       -3    1    3    3    0  500 -1.42579416771E+01 -2.36361760215E+00  1.06840624762E+01  1.79740028939E+01  2.00000000000E-01  0.0000E+00  9.0
  3000022    1    3    3    0    0  6.67651017125E+00 -2.85897728495E+01 -4.76513106905E+01  8.20524119705E+01  6.00000000000E+01  0.0000E+00  9.0
       -2    1    4    4    0  504 -1.57074009763E+01  9.01014478267E+00 -1.40256934964E+01  2.29046991137E+01  3.00000000000E-03  0.0000E+00  9.0
        1    1    4    4  504    0 -5.91616775992E+00  1.35365278725E+02  8.10181400464E+01  1.57869245792E+02  5.00000000000E-03  0.0000E+00  9.0
  3000022    1    4    4    0    0 -3.38561921380E+00  2.13750889149E+01  2.28155939224E+01  6.77414804209E+01  6.00000000000E+01  0.0000E+00  9.0
</event>
<event>
10    1   3.4312288E-02   4.2200000E+02  -1.0000000E+00   9.5410000E-02
       11   -1    0    0    0    0  0.00000000000E+00  0.00000000000E+00  2.31501546640E+02  2.31501546640E+02  0.00000000000E+00  0.0000E+00  9.0
      -11   -1    0    0    0    0  0.00000000000E+00  0.00000000000E+00 -1.92275908990E+02  1.92275908990E+02  0.00000000000E+00  0.0000E+00  9.0
  3000025    2    1    2    0    0 -1.25540078110E+02  2.75256053210E+01  6.88423670573E+01  2.16460393162E+02  1.59993312816E+02  2.7865E-12  9.0
 -3000025    2    1    2    0    0  1.25540078110E+02 -2.75256053210E+01 -2.96167294033E+01  2.07317062466E+02  1.59953879505E+02  4.3119E-13  9.0
        4    1    3    3  500    0 -3.42554713489E+01 -3.13328294557E+01 -1.28244919388E+01  4.81851288317E+01  1.46817165330E+00  0.0000E+00  9.0
       -3    1    3    3    0  500 -9.16092498265E+00  1.21253225051E+01  4.95505330946E+01  5.18289621963E+01  2.00000000000E-01  0.0000E+00  9.0
  3000022    1    3    3    0    0 -8.21236817774E+01  4.67331122710E+01  3.21163259009E+01  1.16446302134E+02  6.00000000000E+01  0.0000E+00  9.0
      -14    1    4    4    0    0  6.30115940251E+01  2.57139621299E+01 -3.69517198036E+01  7.74409350825E+01  0.00000000000E+00  0.0000E+00  9.0
       13    1    4    4    0    0 -1.69173095156E+01 -1.51116657737E+01 -2.46749215752E+00  2.28179204517E+01  1.05700000000E-01  0.0000E+00  9.0
  3000022    1    4    4    0    0  7.94457936005E+01 -3.81279016772E+01  9.80248255871E+00  1.07058206932E+02  6.00000000000E+01  0.0000E+00  9.0
</event>
<event>
10    1   3.4312288E-02   4.5560000E+02  -1.0000000E+00   9.4530000E-02
       11   -1    0    0    0    0  0.00000000000E+00  0.00000000000E+00  2.13210700690E+02  2.13210700690E+02  0.00000000000E+00  0.0000E+00  9.0
      -11   -1    0    0    0    0  0.00000000000E+00  0.00000000000E+00 -2.43423826560E+02  2.43423826560E+02  0.00000000000E+00  0.0000E+00  9.0
  3000025    2    1    2    0    0 -3.27528018476E+01 -6.96333429490E+01 -1.58186748071E+02  2.37774340940E+02  1.59975127645E+02  1.5966E-13  9.0
 -3000025    2    1    2    0    0  3.27528018476E+01  6.96333429490E+01  1.27973622211E+02  2.18860186306E+02  1.60003077123E+02  1.3190E-12  9.0
        2    1    3    3  500    0  4.73119470318E+00 -2.75456492418E+01  1.48668654856E+00  2.79885198138E+01  3.00000000000E-03  0.0000E+00  9.0
       -1    1    3    3    0  500 -6.18223421745E+01 -1.83399996516E+01 -9.77189656130E+01  1.17078408960E+02  5.00000000000E-03  0.0000E+00  9.0
  3000022    1    3    3    0    0  2.43383456242E+01 -2.37476940555E+01 -6.19544690063E+01  9.27074121660E+01  6.00000000000E+01  0.0000E+00  9.0
       -2    1    4    4    0  504  4.71502061528E+00  4.21109592514E+01  3.00530220076E+01  5.19494797786E+01  3.00000000000E-03  0.0000E+00  9.0
        1    1    4    4  504    0  3.32720191447E+01  1.10675080375E+01 -1.47951877432E+01  3.80580424810E+01  5.00000000000E-03  0.0000E+00  9.0
  3000022    1    4    4    0    0 -5.23423791219E+00  1.64548756606E+01  1.12715787946E+02  1.28852664046E+02  6.00000000000E+01  0.0000E+00  9.0
</event>
<event>
10    1   3.4312288E-02   4.9130000E+02  -1.0000000E+00   9.3690000E-02
       11   -1    0    0    0    0  0.00000000000E+00  0.00000000000E+00  2.41750456530E+02  2.41750456530E+02  0.00000000000E+00  0.0000E+00  9.0
      -11   -1    0    0    0    0  0.00000000000E+00  0.00000000000E+00 -2.49617484920E+02  2.49617484920E+02  0.00000000000E+00  0.0000E+00  9.0
  3000025    2    1    2    0    0 -8.69262967715E+01 -1.51355134745E+02 -6.93507199462E+01  2.46727338051E+02  1.60000934686E+02  5.3353E-13  9.0
 -3000025    2    1    2    0    0  8.69262967715E+01  1.51355134745E+02  6.14836915562E+01  2.44640603405E+02  1.60013195153E+02  5.1317E-13  9.0
        4    1    3    3  500    0 -2.71315240830E+01 -7.18722320711E+01 -4.92736197426E+01  9.12785981076E+01  1.46817165330E+00  0.0000E+00  9.0
       -3    1    3    3    0  500 -5.92416441470E+01 -5.15433675408E+01  1.58922684261E+01  8.01180088021E+01  2.00000000000E-01  0.0000E+00  9.0
  3000022    1    3    3    0    0 -5.53128542029E-01 -2.79395351331E+01 -3.59693686297E+01  7.53307311411E+01  6.00000000000E+01  0.0000E+00  9.0
       -4    1    4    4    0  504 -1.80930287769E+01 -4.26497647129E+00  1.02926035708E+01  2.12988481119E+01  1.46817165330E+00  0.0000E+00  9.0
        3    1    4    4  504    0  2.58939736611E+01  7.67576835858E+01 -1.16093980891E+01  8.18355545311E+01  2.00000000000E-01  0.0000E+00  9.0
  3000022    1    4    4    0    0  7.91253518869E+01  7.88624276308E+01  6.28004860746E+01  1.41506200763E+02  6.00000000000E+01  0.0000E+00  9.0
</event>
<event>
10    1   3.4312288E-02   5.0000000E+02  -1.0000000E+00   9.3490000E-02
       11   -1    0    0    0    0  0.00000000000E+00  0.00000000000E+00  2.49988678380E+02  2.49988678380E+02  0.00000000000E+00  0.0000E+00  9.0
      -11   -1    0    0    0    0  0.00000000000E+00  0.00000000000E+00 -2.49999996940E+02  2.49999996940E+02  0.00000000000E+00  0.0000E+00  9.0
  3000025    2    1    2    0    0  1.31414871109E+02 -3.84338220413E+01  1.34765962466E+02  2.49954837117E+02  1.59901622674E+02  4.2834E-13  9.0
 -3000025    2    1    2    0    0 -1.31414871109E+02  3.84338220413E+01 -1.34777281026E+02  2.50033838195E+02  1.60015554670E+02  9.2405E-13  9.0
        2    1    3    3  500    0 -1.89515999785E+01  3.91829070556E+00  2.77134048779E+01  3.38016118362E+01  3.00000000000E-03  0.0000E+00  9.0
       -1    1    3    3    0  500  6.06385935653E+01 -5.04418838355E+01  3.62243442223E+01  8.67964619889E+01  5.00000000000E-03  0.0000E+00  9.0
  3000022    1    3    3    0    0  8.97278775212E+01  8.08977108878E+00  7.08282133652E+01  1.29356763291E+02  6.00000000000E+01  0.0000E+00  9.0
       -2    1    4    4    0  504 -5.64586416674E+01  3.17608825036E+01 -4.47924540410E+01  7.87571953814E+01  3.00000000000E-03  0.0000E+00  9.0
        1    1    4    4  504    0 -2.41402958799E+01  5.03069575048E+01 -3.55133645652E+01  6.61418396047E+01  5.00000000000E-03  0.0000E+00  9.0
  3000022    1    4    4    0    0 -5.08159335621E+01 -4.36340179661E+01 -5.44714624196E+01  1.05134803209E+02  6.00000000000E+01  0.0000E+00  9.0
</event>
<event>
10    1   3.4312288E-02   4.9280000E+02  -1.0000000E+00   9.3650000E-02
       11   -1    0    0    0    0  0.00000000000E+00  0.00000000000E+00  2.50000000000E+02  2.50000000000E+02  0.00000000000E+00  0.0000E+00  9.0
      -11   -1    0    0    0    0  0.00000000000E+00  0.00000000000E+00 -2.42853063920E+02  2.42853063920E+02  0.00000000000E+00  0.0000E+00  9.0
  3000025    2    1    2    0    0 -1.66268119540E+02 -7.61727871266E+01  4.39862856653E+01  2.46921416872E+02  1.59962532206E+02  8.6165E-13  9.0
 -3000025    2    1    2    0    0  1.66268119540E+02  7.61727871266E+01 -3.68393495873E+01  2.45931647044E+02  1.60243116126E+02  3.1362E-13  9.0
        2    1    3    3  500    0 -3.61713290395E+01 -3.97610123165E+01 -7.02065402860E-01  5.37568232855E+01  3.00000000000E-03  0.0000E+00  9.0
       -1    1    3    3    0  500 -1.22720163490E+01  3.09477831731E+01  2.86252217099E+01  4.39063891882E+01  5.00000000000E-03  0.0000E+00  9.0
  3000022    1    3    3    0    0 -1.17824774152E+02 -6.73595579834E+01  1.60631293586E+01  1.49258204399E+02  6.00000000000E+01  0.0000E+00  9.0
       -4    1    4    4    0  504  8.91143897658E+01  4.57472870147E+01  3.53122622408E+01  1.06222879480E+02  1.46817165330E+00  0.0000E+00  9.0
        3    1    4    4  504    0  4.78794600599E+01  6.30879889414E+00 -2.39462936439E+01  5.39046252041E+01  2.00000000000E-01  0.0000E+00  9.0
  3000022    1    4    4    0    0  2.92742697141E+01  2.41167012181E+01 -4.82053181832E+01  8.58041423597E+01  6.00000000000E+01  0.0000E+00  9.0
</event>
<event>
10    1   3.4312288E-02   4.6530000E+02  -1.0000000E+00   9.4290000E-02
       11   -1    0    0    0    0  0.00000000000E+00  0.00000000000E+00  2.35583724410E+02  2.35583724410E+02  0.00000000000E+00  0.0000E+00  9.0
      -11   -1    0    0    0    0  0.00000000000E+00  0.00000000000E+00 -2.29790325700E+02  2.29790325700E+02  0.00000000000E+00  0.0000E+00  9.0
  3000025    2    1    2    0    0  7.21386756526E+01 -9.98839160603E+01  1.18294629879E+02  2.34235207296E+02  1.60286392643E+02  2.7146E-12  9.0
 -3000025    2    1    2    0    0 -7.21386756526E+01  9.98839160603E+01 -1.12501231169E+02  2.31138842807E+02  1.59962034331E+02  2.1630E-12  9.0
        2    1    3    3  500    0 -2.16988043500E+01 -2.12859140363E+01  6.84289328546E+00  3.11569164729E+01  3.00000000000E-03  0.0000E+00  9.0
       -1    1    3    3    0  500  4.62085540652E+01 -4.01183785269E+01  9.90921612990E+01  1.16464463337E+02  5.00000000000E-03  0.0000E+00  9.0
  3000022    1    3    3    0    0  4.76289259374E+01 -3.84796234971E+01  1.23595752943E+01  8.66138274866E+01  6.00000000000E+01  0.0000E+00  9.0
       -4    1    4    4    0  504 -4.46397590124E+01  2.36578233506E+01  7.62606683890E+00  5.11147054556E+01  1.46817165330E+00  0.0000E+00  9.0
        3    1    4    4  504    0 -2.32931104021E+01  6.90797900201E+01 -7.41076370013E+01  1.03954645126E+02  2.00000000000E-01  0.0000E+00  9.0
  3000022    1    4    4    0    0 -4.20580623761E+00  7.14630269015E+00 -4.60196610062E+01  7.60694922250E+01  6.00000000000E+01  0.0000E+00  9.0
</event>
<event>
10    1   3.4312288E-02   4.8080000E+02  -1.0000000E+00   9.3920000E-02
       11   -1    0    0    0    0  0.00000000000E+00  0.00000000000E+00  2.50000000000E+02  2.50000000000E+02  0.00000000000E+00  0.0000E+00  9.0
      -11   -1    0    0    0    0  0.00000000000E+00  0.00000000000E+00 -2.31214638200E+02  2.31214638200E+02  0.00000000000E+00  0.0000E+00  9.0
  3000025    2    1    2    0    0 -3.87487448067E+01  1.74457779322E+02 -5.60296488284E+00  2.40111228201E+02  1.60265488183E+02  7.0612E-13  9.0
 -3000025    2    1    2    0    0  3.87487448067E+01 -1.74457779322E+02  2.43883266773E+01  2.41103410004E+02  1.59997130748E+02  5.8567E-12  9.0
        2    1    3    3  500    0 -2.46168451635E+01 -9.15936741678E+00 -4.98802347730E+00  2.67350605851E+01  3.00000000000E-03  0.0000E+00  9.0
       -1    1    3    3    0  500  4.07657451788E+00  8.63212679969E+01  3.35312204928E+01  9.26947816284E+01  5.00000000000E-03  0.0000E+00  9.0
  3000022    1    3    3    0    0 -1.82084741612E+01  9.72958787418E+01 -3.41461618985E+01  1.20681385987E+02  6.00000000000E+01  0.0000E+00  9.0
       -4    1    4    4    0  504 -8.07809529285E+00 -3.45357417432E+01 -1.69016388848E+01  3.93165869107E+01  1.46817165330E+00  0.0000E+00  9.0
        3    1    4    4  504    0  5.07551749536E+01 -8.95416181680E+01 -1.66498469098E+01  1.04264311108E+02  2.00000000000E-01  0.0000E+00  9.0
  3000022    1    4    4    0    0 -3.92833485401E+00 -5.03804194112E+01  5.79398124720E+01  9.75225119860E+01  6.00000000000E+01  0.0000E+00  9.0
</event>
<event>
10    1   3.4312288E-02   4.8410000E+02  -1.0000000E+00   9.3850000E-02
       11   -1    0    0    0    0  0.00000000000E+00  0.00000000000E+00  2.35466179310E+02  2.35466179310E+02  0.00000000000E+00  0.0000E+00  9.0
      -11   -1    0    0    0    0  0.00000000000E+00  0.00000000000E+00 -2.48835033580E+02  2.48835033580E+02  0.00000000000E+00  0.0000E+00  9.0
  3000025    2    1    2    0    0 -1.38877795216E+02  7.26810184635E+01  8.41507988299E+01  2.40042019392E+02  1.61149749243E+02  7.0694E-13  9.0
 -3000025    2    1    2    0    0  1.38877795216E+02 -7.26810184635E+01 -9.75196531059E+01  2.44259193500E+02  1.59946548629E+02  2.6299E-13  9.0
        2    1    3    3  500    0 -6.42371555572E+01  2.14743239727E+01  5.18149125820E+01  8.52780389024E+01  3.00000000000E-03  0.0000E+00  9.0
       -1    1    3    3    0  500 -1.83972198713E+01 -1.79432579609E+01 -2.24781968604E+01  3.41421669544E+01  5.00000000000E-03  0.0000E+00  9.0
  3000022    1    3    3    0    0 -5.62434197875E+01  6.91499524516E+01  5.48140831083E+01  1.20621813535E+02  6.00000000000E+01  0.0000E+00  9.0
       -2    1    4    4    0  504 -5.33861471686E+00 -3.99982924764E+01  3.36235770074E+00  4.04928347542E+01  3.00000000000E-03  0.0000E+00  9.0
        1    1    4    4  504    0  7.76375739682E+01 -3.83286870836E+01 -5.82780874600E+01  1.04369615541E+02  5.00000000000E-03  0.0000E+00  9.0
  3000022    1    4    4    0    0  6.65788359646E+01  5.64596109649E+00 -4.26039233469E+01  9.93967432045E+01  6.00000000000E+01  0.0000E+00  9.0
</event>
<event>
10    1   3.4312288E-02   4.7230000E+02  -1.0000000E+00   9.4130000E-02
       11   -1    0    0    0    0  0.00000000000E+00  0.00000000000E+00  2.41088228660E+02  2.41088228660E+02  0.00000000000E+00  0.0000E+00  9.0
      -11   -1    0    0    0    0  0.00000000000E+00  0.00000000000E+00 -2.31297816010E+02  2.31297816010E+02  0.00000000000E+00  0.0000E+00  9.0
  3000025    2    1    2    0    0  1.44574577541E+02  4.98819759080E+01  8.71977089495E+01  2.37851260692E+02  1.59936743043E+02  1.4259E-12  9.0
 -3000025    2    1    2    0    0 -1.44574577541E+02 -4.98819759080E+01 -7.74072962945E+01  2.34534783980E+02  1.60077029537E+02  1.7263E-12  9.0
        2    1    3    3  500    0  1.05087200202E+02 -2.26414302248E+01  3.76557941876E+01  1.13903085357E+02  3.00000000000E-03  0.0000E+00  9.0
       -1    1    3    3    0  500 -3.39930469990E+00  1.88490595036E+01  2.08842842243E+01  2.83371782148E+01  5.00000000000E-03  0.0000E+00  9.0
  3000022    1    3    3    0    0  4.28866820388E+01  5.36743466291E+01  2.86576305375E+01  9.56109971206E+01  6.00000000000E+01  0.0000E+00  9.0
       -4    1    4    4    0  504 -5.70432427170E+01  1.04803777200E+01 -5.30128112377E+01  7.85893347736E+01  1.46817165330E+00  0.0000E+00  9.0
        3    1    4    4  504    0 -7.25266350859E+01 -4.45721308998E+01  5.81394059990E+00  8.53266052010E+01  2.00000000000E-01  0.0000E+00  9.0
  3000022    1    4    4    0    0 -1.50046997380E+01 -1.57902227279E+01 -3.02084256564E+01  7.06188440054E+01  6.00000000000E+01  0.0000E+00  9.0
</event>
<event>
10    1   3.4312288E-02   4.9530000E+02  -1.0000000E+00   9.3590000E-02
       11   -1    0    0    0    0  0.00000000000E+00  0.00000000000E+00  2.48260363100E+02  2.48260363100E+02  0.00000000000E+00  0.0000E+00  9.0
      -11   -1    0    0    0    0  0.00000000000E+00  0.00000000000E+00 -2.47058965350E+02  2.47058965350E+02  0.00000000000E+00  0.0000E+00  9.0
  3000025    2    1    2    0    0 -1.15171041396E+02  1.23191395085E+02 -8.50166411515E+01  2.47425582574E+02  1.59847117710E+02  5.5769E-13  9.0
 -3000025    2    1    2    0    0  1.15171041396E+02 -1.23191395085E+02  8.62180388985E+01  2.47893745878E+02  1.59928954273E+02  1.9442E-12  9.0
        4    1    3    3  500    0 -1.74265123987E+01  7.91046715946E+00  2.19697272949E+01  2.91733314943E+01  1.46817165330E+00  0.0000E+00  9.0
       -3    1    3    3    0  500  2.96644295398E+00  3.13401163983E+01 -5.79677701325E+01  6.59644226367E+01  2.00000000000E-01  0.0000E+00  9.0
  3000022    1    3    3    0    0 -1.00710971951E+02  8.39408115264E+01 -4.90185983137E+01  1.52287828443E+02  6.00000000000E+01  0.0000E+00  9.0
       -4    1    4    4    0  504  3.59719809255E+01 -2.52811822901E+01  7.66510947206E+01  8.83779805130E+01  1.46817165330E+00  0.0000E+00  9.0
        3    1    4    4  504    0  5.61083158170E+01 -6.73573401716E+01  1.07756934455E+01  8.83250244724E+01  2.00000000000E-01  0.0000E+00  9.0
  3000022    1    4    4    0    0  2.30907446538E+01 -3.05528726229E+01 -1.20874926641E+00  7.11907408935E+01  6.00000000000E+01  0.0000E+00  9.0
</event>
<event>
10    1   3.4312288E-02   4.9980000E+02  -1.0000000E+00   9.3500000E-02
       11   -1    0    0    0    0  0.00000000000E+00  0.00000000000E+00  2.49800081550E+02  2.49800081550E+02  0.00000000000E+00  0.0000E+00  9.0
      -11   -1    0    0    0    0  0.00000000000E+00  0.00000000000E+00 -2.49999433490E+02  2.49999433490E+02  0.00000000000E+00  0.0000E+00  9.0
  3000025    2    1    2    0    0  1.00003382825E+02 -2.78249324088E+00 -1.63785913101E+02  2.49977849962E+02  1.60170787899E+02  6.2859E-15  9.0
 -3000025    2    1    2    0    0 -1.00003382825E+02  2.78249324088E+00  1.63586561161E+02  2.49821665075E+02  1.60130829334E+02  1.8552E-12  9.0
        2    1    3    3  500    0 -2.40650247121E+00  4.66697369671E+01 -6.99129567829E+01  8.40932645213E+01  3.00000000000E-03  0.0000E+00  9.0
       -1    1    3    3    0  500  3.75628048657E+01 -1.36417847587E+01 -1.70271573102E+01  4.34394603079E+01  5.00000000000E-03  0.0000E+00  9.0
  3000022    1    3    3    0    0  6.48470804309E+01 -3.58104454484E+01 -7.68457990091E+01  1.22445125134E+02  6.00000000000E+01  0.0000E+00  9.0
       -4    1    4    4    0  504 -4.53401813969E+01 -5.75308270896E+00 -1.67151039086E+00  4.57578352280E+01  1.46817165330E+00  0.0000E+00  9.0
        3    1    4    4  504    0 -3.94942512691E+01 -2.07484250345E+01  9.99046900076E+01  1.09413345211E+02  2.00000000000E-01  0.0000E+00  9.0
  3000022    1    4    4    0    0 -1.51689501596E+01  2.92840009836E+01  6.53533815445E+01  9.46504846361E+01  6.00000000000E+01  0.0000E+00  9.0
</event>
<event>
10    1   3.4312288E-02   4.9200000E+02  -1.0000000E+00   9.3670000E-02
       11   -1    0    0    0    0  0.00000000000E+00  0.00000000000E+00  2.48270102340E+02  2.48270102340E+02  0.00000000000E+00  0.0000E+00  9.0
      -11   -1    0    0    0    0  0.00000000000E+00  0.00000000000E+00 -2.43720169910E+02  2.43720169910E+02  0.00000000000E+00  0.0000E+00  9.0
  3000025    2    1    2    0    0  1.29141025367E+02 -1.32926211020E+02 -2.17614718469E+01  2.45723832441E+02  1.59874507548E+02  1.4280E-12  9.0
 -3000025    2    1    2    0    0 -1.29141025367E+02  1.32926211020E+02  2.63114042789E+01  2.46266439805E+02  1.60025271036E+02  8.2892E-13  9.0
        2    1    3    3  500    0  9.65561213213E+01 -3.86518626697E+01 -1.87629007912E+01  1.05683951041E+02  3.00000000000E-03  0.0000E+00  9.0
       -1    1    3    3    0  500  9.42102634979E+00 -6.10879327181E+01 -2.13195431260E+01  6.53835927841E+01  5.00000000000E-03  0.0000E+00  9.0
  3000022    1    3    3    0    0  2.31638776962E+01 -3.31864156318E+01  1.83209720703E+01  7.46562886166E+01  6.00000000000E+01  0.0000E+00  9.0
       -2    1    4    4    0  504 -1.89018417921E+01  2.59929966810E+01 -3.26445862091E+01  4.58103101644E+01  3.00000000000E-03  0.0000E+00  9.0
        1    1    4    4  504    0 -6.68656626027E+01  1.04718582960E+01  3.61778245478E+01  7.67431538671E+01  5.00000000000E-03  0.0000E+00  9.0
  3000022    1    4    4    0    0 -4.33735209725E+01  9.64613560424E+01  2.27781659393E+01  1.23712975773E+02  6.00000000000E+01  0.0000E+00  9.0
</event>
<event>
10    1   3.4312288E-02   4.9950000E+02  -1.0000000E+00   9.3500000E-02
       11   -1    0    0    0    0  0.00000000000E+00  0.00000000000E+00  2.49501654740E+02  2.49501654740E+02  0.00000000000E+00  0.0000E+00  9.0
      -11   -1    0    0    0    0  0.00000000000E+00  0.00000000000E+00 -2.49999996530E+02  2.49999996530E+02  0.00000000000E+00  0.0000E+00  9.0
  3000025    2    1    2    0    0 -1.03231929979E+02  5.30065223210E+01 -1.52883560538E+02  2.49941937790E+02  1.60097053088E+02  7.3174E-13  9.0
 -3000025    2    1    2    0    0  1.03231929979E+02 -5.30065223210E+01  1.52385218748E+02  2.49559713487E+02  1.59975851075E+02  3.0306E-12  9.0
        4    1    3    3  500    0  2.02806927042E+01 -1.33286615080E+01 -1.28680872151E+00  2.43468913590E+01  1.46817165330E+00  0.0000E+00  9.0
       -3    1    3    3    0  500 -6.07905982066E+01  2.36463613414E+01 -3.47532769052E+01  7.39085752173E+01  2.00000000000E-01  0.0000E+00  9.0
  3000022    1    3    3    0    0 -6.27220244774E+01  4.26888224879E+01 -1.16843474912E+02  1.51686471215E+02  6.00000000000E+01  0.0000E+00  9.0
       -4    1    4    4    0  504  5.99380676711E+01 -5.26241830204E+01  5.07089661469E+01  9.45274106828E+01  1.46817165330E+00  0.0000E+00  9.0
        3    1    4    4  504    0  1.48797108688E+01  4.19572689668E+00  8.50461696134E+01  8.64401578298E+01  2.00000000000E-01  0.0000E+00  9.0
  3000022    1    4    4    0    0  2.84141514398E+01 -4.57806619740E+00  1.66300829888E+01  6.85921449757E+01  6.00000000000E+01  0.0000E+00  9.0
</event>
<event>
10    1   3.4312288E-02   4.7940000E+02  -1.0000000E+00   9.3960000E-02
       11   -1    0    0    0    0  0.00000000000E+00  0.00000000000E+00  2.46155461790E+02  2.46155461790E+02  0.00000000000E+00  0.0000E+00  9.0
      -11   -1    0    0    0    0  0.00000000000E+00  0.00000000000E+00 -2.33423292270E+02  2.33423292270E+02  0.00000000000E+00  0.0000E+00  9.0
  3000025    2    1    2    0    0  1.71916546796E+02 -1.35441574910E+01 -3.99312659604E+01  2.38568239850E+02  1.59942351487E+02  7.7659E-13  9.0
 -3000025    2    1    2    0    0 -1.71916546796E+02  1.35441574910E+01  5.26634354824E+01  2.41010514215E+02  1.59918376870E+02  1.3852E-13  9.0
        4    1    3    3  500    0 -7.23967030799E-02  2.18184948722E+01 -6.37542707812E+00  2.27783572323E+01  1.46817165330E+00  0.0000E+00  9.0
       -3    1    3    3    0  500  1.36156775760E+02 -7.76335422231E+00 -3.43913974014E+01  1.40647593187E+02  2.00000000000E-01  0.0000E+00  9.0
  3000022    1    3    3    0    0  3.58321677384E+01 -2.75992981407E+01  8.35558518500E-01  7.51422894296E+01  6.00000000000E+01  0.0000E+00  9.0
       -4    1    4    4    0  504 -1.07866190914E+02  3.26668833588E+01  3.02058306893E+01  1.16690994281E+02  1.46817165330E+00  0.0000E+00  9.0
        3    1    4    4  504    0 -3.83358736725E+01 -3.32774682922E+01 -7.13279198793E+00  5.12634941037E+01  2.00000000000E-01  0.0000E+00  9.0
  3000022    1    4    4    0    0 -2.57144822103E+01  1.41547424244E+01  2.95903967811E+01  7.30560258302E+01  6.00000000000E+01  0.0000E+00  9.0
</event>
<event>
10    1   3.4312288E-02   4.9890000E+02  -1.0000000E+00   9.3510000E-02
       11   -1    0    0    0    0  0.00000000000E+00  0.00000000000E+00  2.49784486420E+02  2.49784486420E+02  0.00000000000E+00  0.0000E+00  9.0
      -11   -1    0    0    0    0  0.00000000000E+00  0.00000000000E+00 -2.49155798640E+02  2.49155798640E+02  0.00000000000E+00  0.0000E+00  9.0
  3000025    2    1    2    0    0 -1.00830557735E+02  5.99170140255E+01 -1.51357681601E+02  2.49423089028E+02  1.59830784323E+02  6.6293E-14  9.0
 -3000025    2    1    2    0    0  1.00830557735E+02 -5.99170140255E+01  1.51986369381E+02  2.49517196033E+02  1.59380440129E+02  1.6974E-12  9.0
        2    1    3    3  500    0 -6.25126633337E+01  3.94594019490E+01 -2.43084266689E+01  7.78188736449E+01  3.00000000000E-03  0.0000E+00  9.0
       -1    1    3    3    0  500 -9.11041575118E+00 -2.92231552180E+01 -2.24813704370E+01  3.79790010109E+01  5.00000000000E-03  0.0000E+00  9.0
  3000022    1    3    3    0    0 -2.92074786501E+01  4.96807672945E+01 -1.04567884495E+02  1.33625214372E+02  6.00000000000E+01  0.0000E+00  9.0
       -2    1    4    4    0  504  3.92809245368E+01  1.74508762971E+01  8.04345724966E+01  9.11989285995E+01  3.00000000000E-03  0.0000E+00  9.0
        1    1    4    4  504    0 -1.55386631362E+01 -2.42441837538E+01  6.60563116610E+00  2.95442868597E+01  5.00000000000E-03  0.0000E+00  9.0
  3000022    1    4    4    0    0  7.70882963345E+01 -5.31237065678E+01  6.49461657185E+01  1.28773980574E+02  6.00000000000E+01  0.0000E+00  9.0
</event>
<event>
10    1   3.4312288E-02   4.6100000E+02  -1.0000000E+00   9.4400000E-02
       11   -1    0    0    0    0  0.00000000000E+00  0.00000000000E+00  2.49999997800E+02  2.49999997800E+02  0.00000000000E+00  0.0000E+00  9.0
      -11   -1    0    0    0    0  0.00000000000E+00  0.00000000000E+00 -2.12499178120E+02  2.12499178120E+02  0.00000000000E+00  0.0000E+00  9.0
  3000025    2    1    2    0    0  3.13938893314E+01 -1.19028966982E+02 -9.28158570912E+01  2.22163412866E+02  1.59963519030E+02  2.7899E-12  9.0
 -3000025    2    1    2    0    0 -3.13938893314E+01  1.19028966982E+02  1.30316676776E+02  2.40335763057E+02  1.60079266272E+02  4.4200E-12  9.0
       14    1    3    3    0    0 -3.37389571487E+01 -1.60399058755E+01 -2.64573302318E+01  4.57775723796E+01  0.00000000000E+00  0.0000E+00  9.0
      -13    1    3    3    0    0  4.15108634307E+01 -5.09175082277E+01 -6.65368733691E+01  9.35035353188E+01  1.05700000000E-01  0.0000E+00  9.0
  3000022    1    3    3    0    0  2.36219830494E+01 -5.20715528797E+01  1.78346508863E-01  8.28823051680E+01  6.00000000000E+01  0.0000E+00  9.0
       -4    1    4    4    0  500 -2.70069250701E+01  6.54380403272E+01 -6.58185607262E+00  7.11124987676E+01  1.46817165330E+00  0.0000E+00  9.0
        3    1    4    4  500    0  1.89395041950E-01  3.55577135725E+01  6.19561509756E+01  7.14352259652E+01  2.00000000000E-01  0.0000E+00  9.0
  3000022    1    4    4    0    0 -4.57635930369E+00  1.80332130837E+01  7.49423818735E+01  9.77880383251E+01  6.00000000000E+01  0.0000E+00  9.0
</event>
<event>
10    1   3.4312288E-02   4.9980000E+02  -1.0000000E+00   9.3490000E-02
       11   -1    0    0    0    0  0.00000000000E+00  0.00000000000E+00  2.49837764130E+02  2.49837764130E+02  0.00000000000E+00  0.0000E+00  9.0
      -11   -1    0    0    0    0  0.00000000000E+00  0.00000000000E+00 -2.49999999910E+02  2.49999999910E+02  0.00000000000E+00  0.0000E+00  9.0
  3000025    2    1    2    0    0 -1.11828325184E+02  1.17338403957E+02 -1.01896796975E+02  2.49528529590E+02  1.60023918490E+02  3.5934E-12  9.0
 -3000025    2    1    2    0    0  1.11828325184E+02 -1.17338403957E+02  1.01734561195E+02  2.50309234445E+02  1.61340994637E+02  9.6391E-13  9.0
        4    1    3    3  500    0 -1.62523393555E+01  5.76613015158E+01 -7.98548521881E+01  9.98394569948E+01  1.46817165330E+00  0.0000E+00  9.0
       -3    1    3    3    0  500 -1.62925424360E+00 -7.30954105735E+00  1.29963672791E+01  1.50009807117E+01  2.00000000000E-01  0.0000E+00  9.0
  3000022    1    3    3    0    0 -9.39467315853E+01  6.69866434992E+01 -3.50383120657E+01  1.34688091884E+02  6.00000000000E+01  0.0000E+00  9.0
      -14    1    4    4    0    0 -1.01937269470E+01  7.60623382431E+00  3.54366413872E+01  3.76499988694E+01  0.00000000000E+00  0.0000E+00  9.0
       13    1    4    4    0    0  2.82344273954E+01 -5.66199866136E+01 -5.65752101609E+00  6.35218426292E+01  1.05700000000E-01  0.0000E+00  9.0
  3000022    1    4    4    0    0  9.37876247360E+01 -6.83246511670E+01  7.19554408235E+01  1.49137392946E+02  6.00000000000E+01  0.0000E+00  9.0
</event>
<event>
10    1   3.4312288E-02   4.9670000E+02  -1.0000000E+00   9.3560000E-02
       11   -1    0    0    0    0  0.00000000000E+00  0.00000000000E+00  2.46680554340E+02  2.46680554340E+02  0.00000000000E+00  0.0000E+00  9.0
      -11   -1    0    0    0    0  0.00000000000E+00  0.00000000000E+00 -2.50000000000E+02  2.50000000000E+02  0.00000000000E+00  0.0000E+00  9.0
  3000025    2    1    2    0    0  1.18451070133E+02 -1.48326952707E+02 -6.42814275048E+00  2.48338050736E+02  1.59996642181E+02  1.1863E-12  9.0
 -3000025    2    1    2    0    0 -1.18451070133E+02  1.48326952707E+02  3.10869709148E+00  2.48342503594E+02  1.60102449009E+02  6.1047E-13  9.0
       14    1    3    3    0    0  6.09901098997E+01 -7.77968061331E+00 -9.38759759948E-01  6.14914482339E+01  0.00000000000E+00  0.0000E+00  9.0
      -13    1    3    3    0    0  2.02887974447E+01 -7.40970333761E+01 -3.65172082762E+01  8.50618794153E+01  1.05700000000E-01  0.0000E+00  9.0
  3000022    1    3    3    0    0  3.71721627902E+01 -6.64502387171E+01  3.10278252853E+01  1.01784723088E+02  6.00000000000E+01  0.0000E+00  9.0
       -2    1    4    4    0  500  1.28714096146E+01 -2.15651583868E+00  8.67467328049E+00  1.56707916696E+01  3.00000000000E-03  0.0000E+00  9.0
        1    1    4    4  500    0 -1.02475735790E+02  6.93360481232E+01  1.81799545556E+01  1.25057086036E+02  5.00000000000E-03  0.0000E+00  9.0
  3000022    1    4    4    0    0 -2.88467439567E+01  8.11474204222E+01 -2.37459307442E+01  1.07614625888E+02  6.00000000000E+01  0.0000E+00  9.0
</event>
<event>
10    1   3.4312288E-02   4.9150000E+02  -1.0000000E+00   9.3680000E-02
       11   -1    0    0    0    0  0.00000000000E+00  0.00000000000E+00  2.41571162420E+02  2.41571162420E+02  0.00000000000E+00  0.0000E+00  9.0
      -11   -1    0    0    0    0  0.00000000000E+00  0.00000000000E+00 -2.49999984550E+02  2.49999984550E+02  0.00000000000E+00  0.0000E+00  9.0
  3000025    2    1    2    0    0  6.23136217590E+01 -9.40550916779E+01 -1.52791309490E+02  2.48310780615E+02  1.59949091235E+02  1.0529E-13  9.0
 -3000025    2    1    2    0    0 -6.23136217590E+01  9.40550916779E+01  1.44362487370E+02  2.43260366354E+02  1.60017906348E+02  5.0121E-13  9.0
        2    1    3    3  500    0  1.46670440674E+01 -5.64392012713E+01 -4.41040704180E+01  7.31141207856E+01  3.00000000000E-03  0.0000E+00  9.0
       -1    1    3    3    0  500  5.69800863601E+01  6.98306950461E+00 -2.50626616499E+01  6.26388899589E+01  5.00000000000E-03  0.0000E+00  9.0
  3000022    1    3    3    0    0 -9.33350866868E+00 -4.45989599105E+01 -8.36245774224E+01  1.12557769871E+02  6.00000000000E+01  0.0000E+00  9.0
       -2    1    4    4    0  504 -3.00988065058E+00  5.73316673175E+01  1.61323320251E+01  5.96341479733E+01  3.00000000000E-03  0.0000E+00  9.0
        1    1    4    4  504    0 -6.30358631290E+01  2.85191560578E+01  8.23655996941E+01  1.07568370540E+02  5.00000000000E-03  0.0000E+00  9.0
  3000022    1    4    4    0    0  3.73212202045E+00  8.20426830296E+00  4.58645556511E+01  7.60578478412E+01  6.00000000000E+01  0.0000E+00  9.0
</event>
<event>
10    1   3.4312288E-02   5.0000000E+02  -1.0000000E+00   9.3490000E-02
       11   -1    0    0    0    0  0.00000000000E+00  0.00000000000E+00  2.50000000000E+02  2.50000000000E+02  0.00000000000E+00  0.0000E+00  9.0
      -11   -1    0    0    0    0  0.00000000000E+00  0.00000000000E+00 -2.49999999940E+02  2.49999999940E+02  0.00000000000E+00  0.0000E+00  9.0
  3000025    2    1    2    0    0  1.84971834280E+02 -4.60303755950E+01  2.31290569314E+01  2.50080389926E+02  1.60224446315E+02  9.4296E-13  9.0
 -3000025    2    1    2    0    0 -1.84971834280E+02  4.60303755950E+01 -2.31290568664E+01  2.49919610010E+02  1.59973382917E+02  7.1651E-13  9.0
       14    1    3    3    0    0  4.88915036584E+01  1.49078832416E+01  3.42044984692E+01  6.15026164342E+01  0.00000000000E+00  0.0000E+00  9.0
      -13    1    3    3    0    0  1.11968743307E+02 -4.61611203575E+01 -1.55057777017E+01  1.22099503787E+02  1.05700000000E-01  0.0000E+00  9.0
  3000022    1    3    3    0    0  2.41115873141E+01 -1.47771384794E+01  4.43033616368E+00  6.64782697050E+01  6.00000000000E+01  0.0000E+00  9.0
      -14    1    4    4    0    0 -2.07495051384E+00 -1.10878010427E+01  1.38857625683E+01  1.78901971398E+01  0.00000000000E+00  0.0000E+00  9.0
       13    1    4    4    0    0 -1.34187070171E+02  1.93114138318E+01 -5.10393270456E+01  1.44858981714E+02  1.05700000000E-01  0.0000E+00  9.0
  3000022    1    4    4    0    0 -4.87098135942E+01  3.78067628055E+01  1.40245076119E+01  8.71704311563E+01  6.00000000000E+01  0.0000E+00  9.0
</event>
<event>
10    1   3.4312288E-02   4.9320000E+02  -1.0000000E+00   9.3640000E-02
       11   -1    0    0    0    0  0.00000000000E+00  0.00000000000E+00  2.49666000330E+02  2.49666000330E+02  0.00000000000E+00  0.0000E+00  9.0
      -11   -1    0    0    0    0  0.00000000000E+00  0.00000000000E+00 -2.43589563700E+02  2.43589563700E+02  0.00000000000E+00  0.0000E+00  9.0
  3000025    2    1    2    0    0  4.50476094316E+01 -1.70730672201E+02 -6.05164064550E+01  2.45846748636E+02  1.60000433809E+02  2.4083E-13  9.0
 -3000025    2    1    2    0    0 -4.50476094316E+01  1.70730672201E+02  6.65928430880E+01  2.47408815395E+02  1.59994580030E+02  3.8541E-13  9.0
        4    1    3    3  500    0  2.27852659267E+01  1.17265317672E+01  1.37678712205E+00  2.57046875379E+01  1.46817165330E+00  0.0000E+00  9.0
       -3    1    3    3    0  500 -1.40533737879E+01 -7.25336092342E+01  4.10955151973E+00  7.39969607285E+01  2.00000000000E-01  0.0000E+00  9.0
  3000022    1    3    3    0    0  3.63157172928E+01 -1.09923594734E+02 -6.60027450967E+01  1.46145100369E+02  6.00000000000E+01  0.0000E+00  9.0
       -4    1    4    4    0  504 -4.75427519489E+01  8.90974645895E+01  7.64858412027E+01  1.26692189545E+02  1.46817165330E+00  0.0000E+00  9.0
        3    1    4    4  504    0 -2.60473037067E+00 -8.06732970689E+00 -9.42427857892E+00  1.26776754824E+01  2.00000000000E-01  0.0000E+00  9.0
  3000022    1    4    4    0    0  5.09987288847E+00  8.97005373183E+01 -4.68719534764E-01  1.08038950368E+02  6.00000000000E+01  0.0000E+00  9.0
</event>
<event>
10    1   3.4312288E-02   4.8330000E+02  -1.0000000E+00   9.3870000E-02
       11   -1    0    0    0    0  0.00000000000E+00  0.00000000000E+00  2.50000000000E+02  2.50000000000E+02  0.00000000000E+00  0.0000E+00  9.0
      -11   -1    0    0    0    0  0.00000000000E+00  0.00000000000E+00 -2.33624505950E+02  2.33624505950E+02  0.00000000000E+00  0.0000E+00  9.0
  3000025    2    1    2    0    0 -1.76680020672E+02 -2.86101073122E+01  3.69302250816E+01  2.42742505748E+02  1.59767689560E+02  5.8334E-13  9.0
 -3000025    2    1    2    0    0  1.76680020672E+02  2.86101073122E+01 -2.05547310266E+01  2.40882000196E+02  1.59897695750E+02  3.0926E-13  9.0
        4    1    3    3  500    0  8.02401628870E+00  1.58556129221E+01  7.09516323982E-01  1.78450060228E+01  1.46817165330E+00  0.0000E+00  9.0
       -3    1    3    3    0  500 -1.18595818097E+02  2.75132258431E+00  3.57672905584E+01  1.23902691334E+02  2.00000000000E-01  0.0000E+00  9.0
  3000022    1    3    3    0    0 -6.61082188633E+01 -4.72170428186E+01  4.53418199962E-01  1.00994808391E+02  6.00000000000E+01  0.0000E+00  9.0
       -2    1    4    4    0  504  3.37199206297E+00 -1.67085165541E+01 -1.49399066939E+01  2.26659585487E+01  3.00000000000E-03  0.0000E+00  9.0
        1    1    4    4  504    0  1.01930804761E+02  3.44567172362E+01  3.87794675512E+01  1.14372205760E+02  5.00000000000E-03  0.0000E+00  9.0
  3000022    1    4    4    0    0  7.13772238476E+01  1.08619066295E+01 -4.43942918849E+01  1.03843835887E+02  6.00000000000E+01  0.0000E+00  9.0
</event>
<event>
10    1   3.4312288E-02   4.9970000E+02  -1.0000000E+00   9.3500000E-02
       11   -1    0    0    0    0  0.00000000000E+00  0.00000000000E+00  2.49714385570E+02  2.49714385570E+02  0.00000000000E+00  0.0000E+00  9.0
      -11   -1    0    0    0    0  0.00000000000E+00  0.00000000000E+00 -2.49999819390E+02  2.49999819390E+02  0.00000000000E+00  0.0000E+00  9.0
  3000025    2    1    2    0    0  1.91529359510E+02  6.90947224071E+00 -9.25146588711E+00  2.49842194289E+02  1.60013424640E+02  2.4488E-13  9.0
 -3000025    2    1    2    0    0 -1.91529359510E+02 -6.90947224071E+00  8.96603207241E+00  2.49872010663E+02  1.60076218160E+02  4.7333E-13  9.0
        2    1    3    3  500    0  2.59110552862E+00  2.45357272389E+01 -1.27438920277E+01  2.77690931075E+01  3.00000000000E-03  0.0000E+00  9.0
       -1    1    3    3    0  500  8.19791838235E+01 -3.51038523696E+01 -2.94047912086E+01  9.39015910545E+01  5.00000000000E-03  0.0000E+00  9.0
  3000022    1    3    3    0    0  1.06959070158E+02  1.74775973714E+01  3.28972173492E+01  1.28171510127E+02  6.00000000000E+01  0.0000E+00  9.0
       -2    1    4    4    0  504  9.97509058880E+00 -6.42589694896E+00  8.04238871914E+00  1.43343855523E+01  3.00000000000E-03  0.0000E+00  9.0
        1    1    4    4  504    0 -1.10078084875E+02  3.86731853299E+01 -1.73398250483E+01  1.17955371183E+02  5.00000000000E-03  0.0000E+00  9.0
  3000022    1    4    4    0    0 -9.14263652237E+01 -3.91567606221E+01  1.82634684016E+01  1.17582253927E+02  6.00000000000E+01  0.0000E+00  9.0
</event>
<event>
10    1   3.4312288E-02   4.7960000E+02  -1.0000000E+00   9.3950000E-02
       11   -1    0    0    0    0  0.00000000000E+00  0.00000000000E+00  2.39623637750E+02  2.39623637750E+02  0.00000000000E+00  0.0000E+00  9.0
      -11   -1    0    0    0    0  0.00000000000E+00  0.00000000000E+00 -2.39947774160E+02  2.39947774160E+02  0.00000000000E+00  0.0000E+00  9.0
  3000025    2    1    2    0    0 -1.14724744073E+02 -1.11533920464E+02 -7.97665492026E+01  2.39759569030E+02  1.59750950712E+02  1.1148E-12  9.0
 -3000025    2    1    2    0    0  1.14724744073E+02  1.11533920464E+02  7.94424127946E+01  2.39811842881E+02  1.59990751979E+02  1.3654E-12  9.0
        4    1    3    3  500    0 -6.00128515325E+01 -2.68972529870E+01 -5.23741979240E+00  6.59893223287E+01  1.46817165330E+00  0.0000E+00  9.0
       -3    1    3    3    0  500 -1.89610499991E+01 -3.39887946979E+01 -7.82717873555E+01  8.74143711177E+01  2.00000000000E-01  0.0000E+00  9.0
  3000022    1    3    3    0    0 -3.57508425418E+01 -5.06478727796E+01  3.74265794407E+00  8.63558755849E+01  6.00000000000E+01  0.0000E+00  9.0
       -2    1    4    4    0  504  4.85301391096E+01  2.24240568626E-01  3.10719411021E+01  5.76254303123E+01  3.00000000000E-03  0.0000E+00  9.0
        1    1    4    4  504    0  4.68698918480E+01  9.78641549060E+01  4.55200916577E+01  1.17670125125E+02  5.00000000000E-03  0.0000E+00  9.0
  3000022    1    4    4    0    0  1.93247131151E+01  1.34455249884E+01  2.85038003472E+00  6.45162874439E+01  6.00000000000E+01  0.0000E+00  9.0
</event>
<event>
10    1   3.4312288E-02   4.9910000E+02  -1.0000000E+00   9.3510000E-02
       11   -1    0    0    0    0  0.00000000000E+00  0.00000000000E+00  2.49141570120E+02  2.49141570120E+02  0.00000000000E+00  0.0000E+00  9.0
      -11   -1    0    0    0    0  0.00000000000E+00  0.00000000000E+00 -2.49999979440E+02  2.49999979440E+02  0.00000000000E+00  0.0000E+00  9.0
  3000025    2    1    2    0    0 -2.53742102210E+01 -1.84143312074E+02  4.23877379482E+01  2.48914916705E+02  1.60029077059E+02  3.2326E-13  9.0
 -3000025    2    1    2    0    0  2.53742102210E+01  1.84143312074E+02 -4.32461472712E+01  2.50226632859E+02  1.61834880703E+02  1.4446E-13  9.0
        2    1    3    3  500    0 -1.90550623724E+01 -2.61967805513E+00  1.96579845071E+01  2.75026267656E+01  3.00000000000E-03  0.0000E+00  9.0
       -1    1    3    3    0  500  3.11187900161E+00 -1.48151358028E+02  3.16887001220E+01  1.51534426508E+02  5.00000000000E-03  0.0000E+00  9.0
  3000022    1    3    3    0    0 -9.43102684969E+00 -3.33722759900E+01 -8.95894668095E+00  6.98778634320E+01  6.00000000000E+01  0.0000E+00  9.0
      -14    1    4    4    0    0  3.43892199911E+01  8.47036827760E+01 -5.21130305192E+01  1.05228799657E+02  0.00000000000E+00  0.0000E+00  9.0
       13    1    4    4    0    0 -1.28564307753E+01 -9.59629257079E+00  1.26443717267E+01  2.04271376418E+01  1.05700000000E-01  0.0000E+00  9.0
  3000022    1    4    4    0    0  3.84142100581E+00  1.09035921868E+02 -3.77748847867E+00  1.24570695560E+02  6.00000000000E+01  0.0000E+00  9.0
</event>
<event>
10    1   3.4312288E-02   4.6640000E+02  -1.0000000E+00   9.4270000E-02
       11   -1    0    0    0    0  0.00000000000E+00  0.00000000000E+00  2.49963766150E+02  2.49963766150E+02  0.00000000000E+00  0.0000E+00  9.0
      -11   -1    0    0    0    0  0.00000000000E+00  0.00000000000E+00 -2.17548686290E+02  2.17548686290E+02  0.00000000000E+00  0.0000E+00  9.0
  3000025    2    1    2    0    0 -6.50611664224E+01  1.56687477541E+02  1.30694823217E+01  2.33563850305E+02  1.59991686680E+02  8.3638E-13  9.0
 -3000025    2    1    2    0    0  6.50611664224E+01 -1.56687477541E+02  1.93455975423E+01  2.33948602134E+02  1.59918026819E+02  3.3999E-12  9.0
        4    1    3    3  500    0 -3.05281167670E+01  8.87704987049E+01 -1.22514965058E+00  9.38926188437E+01  1.46817165330E+00  0.0000E+00  9.0
       -3    1    3    3    0  500 -4.93057156731E+01  3.26975102190E+00  7.55874370076E+00  4.99891935934E+01  2.00000000000E-01  0.0000E+00  9.0
  3000022    1    3    3    0    0  1.47726660184E+01  6.46472278139E+01  6.73588827140E+00  8.96820378678E+01  6.00000000000E+01  0.0000E+00  9.0
       -4    1    4    4    0  504  9.54334013169E+00  8.87662425170E+00 -1.08344997471E+01  1.70121048595E+01  1.46817165330E+00  0.0000E+00  9.0
        3    1    4    4  504    0  5.99484867785E+01 -1.32826265537E+02  1.29087356176E+01  1.46298712704E+02  2.00000000000E-01  0.0000E+00  9.0
  3000022    1    4    4    0    0 -4.43066048777E+00 -3.27378362553E+01  1.72713616716E+01  7.06377845705E+01  6.00000000000E+01  0.0000E+00  9.0
</event>
<event>
10    1   3.4312288E-02   4.9850000E+02  -1.0000000E+00   9.3520000E-02
       11   -1    0    0    0    0  0.00000000000E+00  0.00000000000E+00  2.50000000000E+02  2.50000000000E+02  0.00000000000E+00  0.0000E+00  9.0
      -11   -1    0    0    0    0  0.00000000000E+00  0.00000000000E+00 -2.48520400710E+02  2.48520400710E+02  0.00000000000E+00  0.0000E+00  9.0
  3000025    2    1    2    0    0  1.89966177393E+02 -1.03127916644E+01  2.02736608888E+01  2.49308378056E+02  1.59844123502E+02  7.6421E-13  9.0
 -3000025    2    1    2    0    0 -1.89966177393E+02  1.03127916644E+01 -1.87940616038E+01  2.49212022649E+02  1.59874679847E+02  1.3335E-12  9.0
        4    1    3    3  500    0 -1.35479610962E+01  5.53113937193E+00  5.24260158219E+00  1.56134926255E+01  1.46817165330E+00  0.0000E+00  9.0
       -3    1    3    3    0  500  8.80189996416E+01 -3.33868249960E+01 -2.31241972930E+01  9.69370562874E+01  2.00000000000E-01  0.0000E+00  9.0
  3000022    1    3    3    0    0  1.15495138846E+02  1.75428939605E+01  3.81552565999E+01  1.36757829142E+02  6.00000000000E+01  0.0000E+00  9.0
       -4    1    4    4    0  504 -8.03660520375E+01  3.74701071391E+01 -4.55339380597E+01  9.96905526734E+01  1.46817165330E+00  0.0000E+00  9.0
        3    1    4    4  504    0 -4.92141355883E+01 -9.32722890901E+00  3.65338641353E+01  6.19983190860E+01  2.00000000000E-01  0.0000E+00  9.0
  3000022    1    4    4    0    0 -6.03859897677E+01 -1.78300865647E+01 -9.79398767957E+00  8.75231508905E+01  6.00000000000E+01  0.0000E+00  9.0
</event>
<event>
10    1   3.4312288E-02   4.9760000E+02  -1.0000000E+00   9.3540000E-02
       11   -1    0    0    0    0  0.00000000000E+00  0.00000000000E+00  2.50000000000E+02  2.50000000000E+02  0.00000000000E+00  0.0000E+00  9.0
      -11   -1    0    0    0    0  0.00000000000E+00  0.00000000000E+00 -2.47648512220E+02  2.47648512220E+02  0.00000000000E+00  0.0000E+00  9.0
  3000025    2    1    2    0    0  9.74341280058E+01  1.36883002096E+02  9.12366262489E+01  2.49254490192E+02  1.59916582469E+02  6.6218E-13  9.0
 -3000025    2    1    2    0    0 -9.74341280058E+01 -1.36883002096E+02 -8.88851384659E+01  2.48394022028E+02  1.59902022427E+02  2.1776E-13  9.0
        4    1    3    3  500    0  5.40451502931E+01  1.71680714029E+01  2.40487952558E+01  6.16126693721E+01  1.46817165330E+00  0.0000E+00  9.0
       -3    1    3    3    0  500  2.57603392763E+01  1.08174008566E+02  4.88691417831E+01  1.21463756848E+02  2.00000000000E-01  0.0000E+00  9.0
  3000022    1    3    3    0    0  1.76286384363E+01  1.15409221262E+01  1.83186892095E+01  6.61780639713E+01  6.00000000000E+01  0.0000E+00  9.0
       -4    1    4    4    0  504  1.61835537088E+01 -3.45770227324E+00  1.59646989990E+00  1.66903373183E+01  1.46817165330E+00  0.0000E+00  9.0
        3    1    4    4  504    0 -6.11610307013E+01 -7.24905637753E+01 -9.09120369624E+01  1.31379572147E+02  2.00000000000E-01  0.0000E+00  9.0
  3000022    1    4    4    0    0 -5.24566510132E+01 -6.09347360469E+01  4.30428596697E-01  1.00324112562E+02  6.00000000000E+01  0.0000E+00  9.0
</event>
<event>
10    1   3.4312288E-02   4.9770000E+02  -1.0000000E+00   9.3540000E-02
       11   -1    0    0    0    0  0.00000000000E+00  0.00000000000E+00  2.49244132290E+02  2.49244132290E+02  0.00000000000E+00  0.0000E+00  9.0
      -11   -1    0    0    0    0  0.00000000000E+00  0.00000000000E+00 -2.48449188190E+02  2.48449188190E+02  0.00000000000E+00  0.0000E+00  9.0
  3000025    2    1    2    0    0 -1.26705270169E+02 -5.93189226167E+01  1.30057237140E+02  2.49151537839E+02  1.59964507957E+02  5.8234E-13  9.0
 -3000025    2    1    2    0    0  1.26705270169E+02  5.93189226167E+01 -1.29262293040E+02  2.48541782638E+02  1.59660005155E+02  1.5095E-12  9.0
       14    1    3    3    0    0  1.22881616755E+01 -3.08558217008E+00  1.98294835431E+01  2.35314290317E+01  0.00000000000E+00  0.0000E+00  9.0
      -13    1    3    3    0    0 -9.95951032953E+01 -1.70125483968E+01  1.84957879928E+01  1.02716681943E+02  1.05700000000E-01  0.0000E+00  9.0
  3000022    1    3    3    0    0 -3.93983285489E+01 -3.92207920503E+01  9.17319656036E+01  1.22903426864E+02  6.00000000000E+01  0.0000E+00  9.0
      -14    1    4    4    0    0  6.43502131503E-01  5.68103824021E+01 -2.01646587871E+01  6.02863758047E+01  0.00000000000E+00  0.0000E+00  9.0
       13    1    4    4    0    0  3.11076622082E+01 -1.16609440243E+01 -5.13652719697E+01  6.11724333390E+01  1.05700000000E-01  0.0000E+00  9.0
  3000022    1    4    4    0    0  9.49541058302E+01  1.41694842390E+01 -5.77323622834E+01  1.27082973495E+02  6.00000000000E+01  0.0000E+00  9.0
</event>
<event>
10    1   3.4312288E-02   4.6580000E+02  -1.0000000E+00   9.4280000E-02
       11   -1    0    0    0    0  0.00000000000E+00  0.00000000000E+00  2.16997019960E+02  2.16997019960E+02  0.00000000000E+00  0.0000E+00  9.0
      -11   -1    0    0    0    0  0.00000000000E+00  0.00000000000E+00 -2.49999017140E+02  2.49999017140E+02  0.00000000000E+00  0.0000E+00  9.0
  3000025    2    1    2    0    0 -3.30260427470E+01  5.51658626354E+01  1.40610238571E+02  2.22409467364E+02  1.59877265683E+02  2.9174E-13  9.0
 -3000025    2    1    2    0    0  3.30260427470E+01 -5.51658626354E+01 -1.73612235751E+02  2.44586569742E+02  1.59835508557E+02  5.6015E-15  9.0
        4    1    3    3  500    0 -2.56755651188E+01 -2.40775993312E+01  6.47256481261E+01  7.36921331423E+01  1.46817165330E+00  0.0000E+00  9.0
       -3    1    3    3    0  500  2.35824178210E+01  1.79397772720E+01 -6.95975939977E-01  2.96393390844E+01  2.00000000000E-01  0.0000E+00  9.0
  3000022    1    3    3    0    0 -3.09328954493E+01  6.13036846950E+01  7.65805663861E+01  1.19077995138E+02  6.00000000000E+01  0.0000E+00  9.0
       -4    1    4    4    0  504  3.66577038418E+01 -2.56284649300E+01 -3.15258622649E+01  5.47415836925E+01  1.46817165330E+00  0.0000E+00  9.0
        3    1    4    4  504    0 -2.80380784123E+01 -2.60351819700E+01 -1.11968452033E+02  1.18325562715E+02  2.00000000000E-01  0.0000E+00  9.0
  3000022    1    4    4    0    0  2.44064173175E+01 -3.50221573491E+00 -3.01179214545E+01  7.15194233343E+01  6.00000000000E+01  0.0000E+00  9.0
</event>
<event>
10    1   3.4312288E-02   4.0890000E+02  -1.0000000E+00   9.5770000E-02
       11   -1    0    0    0    0  0.00000000000E+00  0.00000000000E+00  1.84618871860E+02  1.84618871860E+02  0.00000000000E+00  0.0000E+00  9.0
      -11   -1    0    0    0    0  0.00000000000E+00  0.00000000000E+00 -2.26398304290E+02  2.26398304290E+02  0.00000000000E+00  0.0000E+00  9.0
  3000025    2    1    2    0    0 -9.73937153197E+01  8.14896700362E+01 -1.41794876155E+01  2.04888403144E+02  1.60162722778E+02  2.3161E-12  9.0
 -3000025    2    1    2    0    0  9.73937153197E+01 -8.14896700362E+01 -2.75999448115E+01  2.06128773012E+02  1.60003787466E+02  1.7298E-12  9.0
       14    1    3    3    0    0 -4.22671642760E+01  3.15829774047E+01 -5.88750390541E+01  7.90586355897E+01  0.00000000000E+00  0.0000E+00  9.0
      -13    1    3    3    0    0 -3.75587861912E+01  2.91908850774E+00  2.48935355868E+01  4.51539896839E+01  1.05700000000E-01  0.0000E+00  9.0
  3000022    1    3    3    0    0 -1.75677648527E+01  4.69876041245E+01  1.98020158518E+01  8.06757778709E+01  6.00000000000E+01  0.0000E+00  9.0
       -2    1    4    4    0  500  3.72794657151E+01 -7.06218948614E+00 -3.58197529140E+01  5.21793809101E+01  3.00000000000E-03  0.0000E+00  9.0
        1    1    4    4  500    0  5.19773204229E+01 -6.59573314313E+01  2.98101964464E+01  8.91103767529E+01  5.00000000000E-03  0.0000E+00  9.0
  3000022    1    4    4    0    0  8.13692918168E+00 -8.47014911879E+00 -2.15903883439E+01  6.48390153491E+01  6.00000000000E+01  0.0000E+00  9.0
</event>
<event>
10    1   3.4312288E-02   4.8260000E+02  -1.0000000E+00   9.3880000E-02
       11   -1    0    0    0    0  0.00000000000E+00  0.00000000000E+00  2.32911948450E+02  2.32911948450E+02  0.00000000000E+00  0.0000E+00  9.0
      -11   -1    0    0    0    0  0.00000000000E+00  0.00000000000E+00 -2.50000000000E+02  2.50000000000E+02  0.00000000000E+00  0.0000E+00  9.0
  3000025    2    1    2    0    0  1.14400646062E+02 -4.87474831236E+01 -1.39698468706E+02  2.46125369629E+02  1.59994407670E+02  3.5653E-12  9.0
 -3000025    2    1    2    0    0 -1.14400646062E+02  4.87474831236E+01  1.22610417156E+02  2.36786578819E+02  1.59908550689E+02  5.2197E-13  9.0
        4    1    3    3  500    0  5.53791381193E+01 -8.22228949142E+01 -8.46078266713E+01  1.30338379800E+02  1.46817165330E+00  0.0000E+00  9.0
       -3    1    3    3    0  500  1.11908985066E+01  1.97790490942E+01 -2.01355073039E+01  3.03632285312E+01  2.00000000000E-01  0.0000E+00  9.0
  3000022    1    3    3    0    0  4.78306094357E+01  1.36963626964E+01 -3.49551347317E+01  8.54237612975E+01  6.00000000000E+01  0.0000E+00  9.0
       -2    1    4    4    0  504  1.33829799977E+01  3.49010407493E+01  1.47828913353E+01  4.01960282146E+01  3.00000000000E-03  0.0000E+00  9.0
        1    1    4    4  504    0 -7.85870522685E+01  3.17012023448E+01  5.39753715675E+01  1.00470054122E+02  5.00000000000E-03  0.0000E+00  9.0
  3000022    1    4    4    0    0 -4.91965737900E+01 -1.78547599705E+01  5.38521542533E+01  9.61204964823E+01  6.00000000000E+01  0.0000E+00  9.0
</event>
<event>
10    1   3.4312288E-02   4.9300000E+02  -1.0000000E+00   9.3650000E-02
       11   -1    0    0    0    0  0.00000000000E+00  0.00000000000E+00  2.48324643870E+02  2.48324643870E+02  0.00000000000E+00  0.0000E+00  9.0
      -11   -1    0    0    0    0  0.00000000000E+00  0.00000000000E+00 -2.44723684370E+02  2.44723684370E+02  0.00000000000E+00  0.0000E+00  9.0
  3000025    2    1    2    0    0 -8.58208665562E+00 -1.85868632886E+02  2.48141338761E+01  2.46737899487E+02  1.60134471307E+02  1.7174E-12  9.0
 -3000025    2    1    2    0    0  8.58208665562E+00  1.85868632886E+02 -2.12131743761E+01  2.46310428757E+02  1.59993836272E+02  9.1192E-14  9.0
        4    1    3    3  500    0 -2.43291391756E+01  9.32226167076E+00 -1.12976379082E+01  2.84359583273E+01  1.46817165330E+00  0.0000E+00  9.0
       -3    1    3    3    0  500 -8.26198533395E+00 -9.09201210622E+01  2.74059440924E+01  9.53197491982E+01  2.00000000000E-01  0.0000E+00  9.0
  3000022    1    3    3    0    0  2.40090378534E+01 -1.04270773495E+02  8.70582769191E+00  1.22982191961E+02  6.00000000000E+01  0.0000E+00  9.0
       -4    1    4    4    0  504  3.82367950465E+01  1.86641123649E+01 -2.45875721461E+01  4.91640703954E+01  1.46817165330E+00  0.0000E+00  9.0
        3    1    4    4  504    0 -3.88945817796E+01  4.28207911812E+01 -7.40027257128E+00  5.83199166951E+01  2.00000000000E-01  0.0000E+00  9.0
  3000022    1    4    4    0    0  9.23987338885E+00  1.24383729340E+02  1.07746703412E+01  1.38826441666E+02  6.00000000000E+01  0.0000E+00  9.0
</event>
<event>
10    1   3.4312288E-02   4.9850000E+02  -1.0000000E+00   9.3520000E-02
       11   -1    0    0    0    0  0.00000000000E+00  0.00000000000E+00  2.49999999990E+02  2.49999999990E+02  0.00000000000E+00  0.0000E+00  9.0
      -11   -1    0    0    0    0  0.00000000000E+00  0.00000000000E+00 -2.48507617480E+02  2.48507617480E+02  0.00000000000E+00  0.0000E+00  9.0
  3000025    2    1    2    0    0  5.47282493569E+01  1.65890555298E+02 -7.66442852010E+01  2.49133864635E+02  1.60245057455E+02  6.4624E-13  9.0
 -3000025    2    1    2    0    0 -5.47282493569E+01 -1.65890555298E+02  7.81366677180E+01  2.49373752834E+02  1.59897067345E+02  3.9222E-13  9.0
        4    1    3    3  500    0 -3.93822876439E+00  1.03390313504E+02 -4.90944156981E+01  1.14531584085E+02  1.46817165330E+00  0.0000E+00  9.0
       -3    1    3    3    0  500  1.26563817956E+01  1.29283433760E+01  2.43629234862E+01  3.03466324886E+01  2.00000000000E-01  0.0000E+00  9.0
  3000022    1    3    3    0    0  4.60100963251E+01  4.95718984181E+01 -5.19127929891E+01  1.04255648061E+02  6.00000000000E+01  0.0000E+00  9.0
       -2    1    4    4    0  504 -1.28077787021E+01 -5.99046030129E+01  7.26307619761E+01  9.50148843689E+01  3.00000000000E-03  0.0000E+00  9.0
        1    1    4    4  504    0 -2.13998780820E+01 -8.39232588979E+01 -3.12956311455E+00  8.66652315307E+01  5.00000000000E-03  0.0000E+00  9.0
  3000022    1    4    4    0    0 -2.05205925729E+01 -2.20626933883E+01  8.63546885762E+00  6.76936369349E+01  6.00000000000E+01  0.0000E+00  9.0
</event>
<event>
10    1   3.4312288E-02   4.9990000E+02  -1.0000000E+00   9.3490000E-02
       11   -1    0    0    0    0  0.00000000000E+00  0.00000000000E+00  2.49999750180E+02  2.49999750180E+02  0.00000000000E+00  0.0000E+00  9.0
      -11   -1    0    0    0    0  0.00000000000E+00  0.00000000000E+00 -2.49931072460E+02  2.49931072460E+02  0.00000000000E+00  0.0000E+00  9.0
  3000025    2    1    2    0    0 -4.77722150317E+01  1.54814514365E+02  1.03206326155E+02  2.50123073947E+02  1.60188289133E+02  1.5060E-12  9.0
 -3000025    2    1    2    0    0  4.77722150317E+01 -1.54814514365E+02 -1.03137648435E+02  2.49807748689E+02  1.59739845979E+02  8.5982E-13  9.0
        4    1    3    3  500    0 -1.30398649119E+01 -3.75298896569E+00  4.52898479958E+01  4.73016792787E+01  1.46817165330E+00  0.0000E+00  9.0
       -3    1    3    3    0  500 -3.26634108231E+01  1.04000308385E+02  5.38658899886E+01  1.21591680040E+02  2.00000000000E-01  0.0000E+00  9.0
  3000022    1    3    3    0    0 -2.06893929622E+00  5.45671949467E+01  4.05058817017E+00  8.12297146288E+01  6.00000000000E+01  0.0000E+00  9.0
       -4    1    4    4    0  504 -3.37087286425E+01 -4.85292171905E+01 -2.84764781320E+00  5.91745547841E+01  1.46817165330E+00  0.0000E+00  9.0
        3    1    4    4  504    0  2.93266877908E+01 -2.02730312436E+00 -2.94413217057E+01  4.16052400368E+01  2.00000000000E-01  0.0000E+00  9.0
  3000022    1    4    4    0    0  5.21542558833E+01 -1.04257994049E+02 -7.08486789155E+01  1.49027953868E+02  6.00000000000E+01  0.0000E+00  9.0
</event>
<event>
10    1   3.4312288E-02   4.9460000E+02  -1.0000000E+00   9.3610000E-02
       11   -1    0    0    0    0  0.00000000000E+00  0.00000000000E+00  2.48081168420E+02  2.48081168420E+02  0.00000000000E+00  0.0000E+00  9.0
      -11   -1    0    0    0    0  0.00000000000E+00  0.00000000000E+00 -2.46481892140E+02  2.46481892140E+02  0.00000000000E+00  0.0000E+00  9.0
  3000025    2    1    2    0    0  1.51391319663E+02 -1.09032960954E+02 -2.42461973887E+01  2.46973178207E+02  1.60001107566E+02  2.5912E-12  9.0
 -3000025    2    1    2    0    0 -1.51391319663E+02  1.09032960954E+02  2.58454736607E+01  2.47589882350E+02  1.60702343137E+02  1.5704E-12  9.0
        2    1    3    3  500    0  7.81156298075E+01  8.45840586377E+00 -1.19598079244E+01  7.94772499811E+01  3.00000000000E-03  0.0000E+00  9.0
       -1    1    3    3    0  500 -8.65119936475E+00 -2.71489264058E+01 -1.35957270795E+01  3.15713679662E+01  5.00000000000E-03  0.0000E+00  9.0
  3000022    1    3    3    0    0  8.19268892199E+01 -9.03424404115E+01  1.30933761516E+00  1.35924560259E+02  6.00000000000E+01  0.0000E+00  9.0
       -4    1    4    4    0  504 -3.86811685673E+01  3.82825958606E+01  5.11445414411E+01  7.46974537369E+01  1.46817165330E+00  0.0000E+00  9.0
        3    1    4    4  504    0 -8.62232996526E+01  5.83288111464E+01 -1.92737465650E+01  1.05868904403E+02  2.00000000000E-01  0.0000E+00  9.0
  3000022    1    4    4    0    0 -2.64868514433E+01  1.24215539462E+01 -6.02532121536E+00  6.70235242103E+01  6.00000000000E+01  0.0000E+00  9.0
</event>
<event>
10    1   3.4312288E-02   4.2660000E+02  -1.0000000E+00   9.5280000E-02
       11   -1    0    0    0    0  0.00000000000E+00  0.00000000000E+00  1.87930491790E+02  1.87930491790E+02  0.00000000000E+00  0.0000E+00  9.0
      -11   -1    0    0    0    0  0.00000000000E+00  0.00000000000E+00 -2.42086651930E+02  2.42086651930E+02  0.00000000000E+00  0.0000E+00  9.0
  3000025    2    1    2    0    0  3.16001666680E+01 -1.36556153527E+02 -4.60328816031E+01  2.17703340362E+02  1.60092362767E+02  1.9616E-12  9.0
 -3000025    2    1    2    0    0 -3.16001666680E+01  1.36556153527E+02 -8.12327854017E+00  2.12313803351E+02  1.59263962778E+02  1.5628E-12  9.0
        2    1    3    3  500    0  3.13716159285E+01 -1.76055792324E+01 -7.77530419517E+00  3.68047560840E+01  3.00000000000E-03  0.0000E+00  9.0
       -1    1    3    3    0  500 -4.32470521844E+01 -4.85510170693E+01  1.33896765894E+01  6.63836745388E+01  5.00000000000E-03  0.0000E+00  9.0
  3000022    1    3    3    0    0  4.34756029238E+01 -7.03995572250E+01 -5.16472539966E+01  1.14514909739E+02  6.00000000000E+01  0.0000E+00  9.0
       -4    1    4    4    0  504 -1.60199374278E+01 -3.21077673389E-01 -3.59387858482E+01  3.93763043252E+01  1.46817165330E+00  0.0000E+00  9.0
        3    1    4    4  504    0 -7.71264004346E+00  8.67618403636E+01 -6.18835290719E+00  8.73237509010E+01  2.00000000000E-01  0.0000E+00  9.0
  3000022    1    4    4    0    0 -7.86758919671E+00  5.01153908363E+01  3.40038602154E+01  8.56137481249E+01  6.00000000000E+01  0.0000E+00  9.0
</event>
<event>
10    1   3.4312288E-02   4.4390000E+02  -1.0000000E+00   9.4830000E-02
       11   -1    0    0    0    0  0.00000000000E+00  0.00000000000E+00  2.37003125340E+02  2.37003125340E+02  0.00000000000E+00  0.0000E+00  9.0
      -11   -1    0    0    0    0  0.00000000000E+00  0.00000000000E+00 -2.07883497130E+02  2.07883497130E+02  0.00000000000E+00  0.0000E+00  9.0
  3000025    2    1    2    0    0 -4.51846494339E+01 -1.46121489964E+02  2.73110774411E+01  2.23150701650E+02  1.60178645026E+02  5.9274E-13  9.0
 -3000025    2    1    2    0    0  4.51846494339E+01  1.46121489964E+02  1.80855077511E+00  2.21735920824E+02  1.60531633500E+02  1.7596E-12  9.0
       14    1    3    3    0    0  3.55002985934E+01 -7.80337403967E+01  1.01398599455E+01  8.63270096797E+01  0.00000000000E+00  0.0000E+00  9.0
      -13    1    3    3    0    0 -3.91935818102E+01 -4.14140634159E+01  1.56811684926E+01  5.91368896842E+01  1.05700000000E-01  0.0000E+00  9.0
  3000022    1    3    3    0    0 -4.14913662170E+01 -2.66736861506E+01  1.49004900294E+00  7.76868022861E+01  6.00000000000E+01  0.0000E+00  9.0
       -4    1    4    4    0  500  8.89168561544E+00  6.96826206667E+01 -2.62720841751E+01  7.50140495572E+01  1.46817165330E+00  0.0000E+00  9.0
        3    1    4    4  500    0  3.64886489125E+01  5.18261770823E+01  4.72942278640E+01  7.90832353895E+01  2.00000000000E-01  0.0000E+00  9.0
  3000022    1    4    4    0    0 -1.95685093680E-01  2.46126922150E+01 -1.92135929138E+01  6.76386358776E+01  6.00000000000E+01  0.0000E+00  9.0
</event>
<event>
10    1   3.4312288E-02   4.8480000E+02  -1.0000000E+00   9.3830000E-02
       11   -1    0    0    0    0  0.00000000000E+00  0.00000000000E+00  2.35009414080E+02  2.35009414080E+02  0.00000000000E+00  0.0000E+00  9.0
      -11   -1    0    0    0    0  0.00000000000E+00  0.00000000000E+00 -2.49999999950E+02  2.49999999950E+02  0.00000000000E+00  0.0000E+00  9.0
  3000025    2    1    2    0    0 -8.58209270227E+01  1.42976100065E+02  6.56268799147E+01  2.40234498984E+02  1.59994782508E+02  2.5267E-12  9.0
 -3000025    2    1    2    0    0  8.58209270227E+01 -1.42976100065E+02 -8.06174657867E+01  2.44774915042E+02  1.60025580889E+02  1.0095E-12  9.0
       14    1    3    3    0    0 -7.49772328479E+00  2.56124775399E+01 -1.55318172133E+01  3.08780214090E+01  0.00000000000E+00  0.0000E+00  9.0
      -13    1    3    3    0    0 -8.43516605075E+01  4.29708875479E+01  5.73312048892E+01  1.10673294130E+02  1.05700000000E-01  0.0000E+00  9.0
  3000022    1    3    3    0    0  6.02845676919E+00  7.43927349776E+01  2.38274922394E+01  9.86831834452E+01  6.00000000000E+01  0.0000E+00  9.0
      -14    1    4    4    0    0  4.97590249021E+01 -4.40198013646E+01 -9.19550567965E+00  6.70690748117E+01  0.00000000000E+00  0.0000E+00  9.0
       13    1    4    4    0    0  9.19346033541E-01 -2.23462887229E+01 -7.07945072208E+01  7.42433514999E+01  1.05700000000E-01  0.0000E+00  9.0
  3000022    1    4    4    0    0  3.51425560872E+01 -7.66100099781E+01 -6.27452886392E-01  1.03462488730E+02  6.00000000000E+01  0.0000E+00  9.0
</event>
<event>
10    1   3.4312288E-02   4.9980000E+02  -1.0000000E+00   9.3490000E-02
       11   -1    0    0    0    0  0.00000000000E+00  0.00000000000E+00  2.50000000000E+02  2.50000000000E+02  0.00000000000E+00  0.0000E+00  9.0
      -11   -1    0    0    0    0  0.00000000000E+00  0.00000000000E+00 -2.49833334160E+02  2.49833334160E+02  0.00000000000E+00  0.0000E+00  9.0
  3000025    2    1    2    0    0 -1.62444059611E+02  1.01336853814E+02  1.60228337302E+01  2.49980416435E+02  1.59925754513E+02  1.1356E-13  9.0
 -3000025    2    1    2    0    0  1.62444059611E+02 -1.01336853814E+02 -1.58561678932E+01  2.49852917727E+02  1.59743018603E+02  1.0191E-13  9.0
        4    1    3    3  500    0 -7.49375868082E+01  9.37166216681E+01 -2.73699578403E+01  1.23084187505E+02  1.46817165330E+00  0.0000E+00  9.0
       -3    1    3    3    0  500 -3.79958332127E+01 -8.93673267400E+00  8.00257419065E+00  3.98450715408E+01  2.00000000000E-01  0.0000E+00  9.0
  3000022    1    3    3    0    0 -4.95106395891E+01  1.65569648202E+01  3.53902173800E+01  8.70511573891E+01  6.00000000000E+01  0.0000E+00  9.0
       -2    1    4    4    0  504  6.11613250436E+01 -7.37817909971E+01  1.89263608904E+01  9.76865779388E+01  3.00000000000E-03  0.0000E+00  9.0
        1    1    4    4  504    0  3.04367798432E+01  2.10752802065E+01  9.76421972496E+00  3.82871390266E+01  5.00000000000E-03  0.0000E+00  9.0
  3000022    1    4    4    0    0  7.08459547237E+01 -4.86303430234E+01 -4.45467485086E+01  1.13879200761E+02  6.00000000000E+01  0.0000E+00  9.0
</event>
<event>
10    1   3.4312288E-02   4.9750000E+02  -1.0000000E+00   9.3550000E-02
       11   -1    0    0    0    0  0.00000000000E+00  0.00000000000E+00  2.47473843620E+02  2.47473843620E+02  0.00000000000E+00  0.0000E+00  9.0
      -11   -1    0    0    0    0  0.00000000000E+00  0.00000000000E+00 -2.49999943740E+02  2.49999943740E+02  0.00000000000E+00  0.0000E+00  9.0
  3000025    2    1    2    0    0 -1.05367607852E+02 -1.03033430603E+02  1.19510395146E+02  2.48047682597E+02  1.59770766061E+02  1.5734E-12  9.0
 -3000025    2    1    2    0    0  1.05367607852E+02  1.03033430603E+02 -1.22036495276E+02  2.49426104758E+02  1.60007046561E+02  4.7545E-13  9.0
        2    1    3    3  500    0  9.61233560089E-02 -4.79363356759E+01 -7.84284947284E+00  4.85737770261E+01  3.00000000000E-03  0.0000E+00  9.0
       -1    1    3    3    0  500 -5.00658122959E+01 -4.89068079133E+01  7.32927450542E+01  1.01342429040E+02  5.00000000000E-03  0.0000E+00  9.0
  3000022    1    3    3    0    0 -5.53979189117E+01 -6.19028701350E+00  5.40604995641E+01  9.81314765311E+01  6.00000000000E+01  0.0000E+00  9.0
       -2    1    4    4    0  504  1.77179925769E+01 -1.47020173705E+01  1.91292603648E+01  2.99333457338E+01  3.00000000000E-03  0.0000E+00  9.0
        1    1    4    4  504    0  4.64188298422E+01  4.73238287922E+01 -4.76139313360E+01  8.16170265186E+01  5.00000000000E-03  0.0000E+00  9.0
  3000022    1    4    4    0    0  4.12307854323E+01  7.04116191820E+01 -9.35518243037E+01  1.37875732505E+02  6.00000000000E+01  0.0000E+00  9.0
</event>
<event>
10    1   3.4312288E-02   4.8270000E+02  -1.0000000E+00   9.3880000E-02
       11   -1    0    0    0    0  0.00000000000E+00  0.00000000000E+00  2.45674474280E+02  2.45674474280E+02  0.00000000000E+00  0.0000E+00  9.0
      -11   -1    0    0    0    0  0.00000000000E+00  0.00000000000E+00 -2.37147555270E+02  2.37147555270E+02  0.00000000000E+00  0.0000E+00  9.0
  3000025    2    1    2    0    0 -1.24994551734E+02  6.40799251455E+01  1.18371034133E+02  2.43365207818E+02  1.59640370473E+02  8.3959E-14  9.0
 -3000025    2    1    2    0    0  1.24994551734E+02 -6.40799251455E+01 -1.09844115123E+02  2.39456821722E+02  1.59824794923E+02  3.4369E-13  9.0
        2    1    3    3  500    0 -7.32997952929E+01  4.18596904725E+01  7.28805151442E+01  1.11519788258E+02  3.00000000000E-03  0.0000E+00  9.0
       -1    1    3    3    0  500 -3.85548105805E+01  6.18823706955E+00 -1.71631020090E+01  4.26537195623E+01  5.00000000000E-03  0.0000E+00  9.0
  3000022    1    3    3    0    0 -1.31399458609E+01  1.60319976035E+01  6.26536209973E+01  8.91916999976E+01  6.00000000000E+01  0.0000E+00  9.0
       -4    1    4    4    0  504  7.12291023825E+00 -2.03648247796E+01  1.07435901963E+01  2.41462667275E+01  1.46817165330E+00  0.0000E+00  9.0
        3    1    4    4  504    0  8.25971048937E+01 -4.95927917108E+01 -1.07307686477E+02  1.44210631728E+02  2.00000000000E-01  0.0000E+00  9.0
  3000022    1    4    4    0    0  3.52745366029E+01  5.87769134388E+00 -1.32800188423E+01  7.10999232667E+01  6.00000000000E+01  0.0000E+00  9.0
</event>
<event>
10    1   3.4312288E-02   4.9030000E+02  -1.0000000E+00   9.3710000E-02
       11   -1    0    0    0    0  0.00000000000E+00  0.00000000000E+00  2.44471839860E+02  2.44471839860E+02  0.00000000000E+00  0.0000E+00  9.0
      -11   -1    0    0    0    0  0.00000000000E+00  0.00000000000E+00 -2.45834027110E+02  2.45834027110E+02  0.00000000000E+00  0.0000E+00  9.0
  3000025    2    1    2    0    0  5.68950274945E-01 -1.86232366774E+02 -9.33076478107E+00  2.44640835359E+02  1.58364317366E+02  1.6948E-12  9.0
 -3000025    2    1    2    0    0 -5.68950274945E-01  1.86232366774E+02  7.96857752877E+00  2.45665031612E+02  1.60015597334E+02  2.2325E-12  9.0
        4    1    3    3  500    0 -1.40583445274E+01  4.35596389959E+00  1.86058632115E+01  2.37685747616E+01  1.46817165330E+00  0.0000E+00  9.0
       -3    1    3    3    0  500 -1.28514233285E+01 -1.16904769792E+02  1.66857445512E+00  1.17621037329E+02  2.00000000000E-01  0.0000E+00  9.0
  3000022    1    3    3    0    0  2.74787181308E+01 -7.36835608821E+01 -2.96052024483E+01  1.03251223268E+02  6.00000000000E+01  0.0000E+00  9.0
       -2    1    4    4    0  504 -3.82755993494E+01  1.80310374451E+01  9.02233526176E+00  4.32613263721E+01  3.00000000000E-03  0.0000E+00  9.0
        1    1    4    4  504    0  4.42192943553E+01  3.89721209613E+01  8.03330067041E+00  5.94870250573E+01  5.00000000000E-03  0.0000E+00  9.0
  3000022    1    4    4    0    0 -6.51264528158E+00  1.29229208368E+02 -9.08705840371E+00  1.42916680183E+02  6.00000000000E+01  0.0000E+00  9.0
</event>
<event>
10    1   3.4312288E-02   4.9250000E+02  -1.0000000E+00   9.3660000E-02
       11   -1    0    0    0    0  0.00000000000E+00  0.00000000000E+00  2.50000000000E+02  2.50000000000E+02  0.00000000000E+00  0.0000E+00  9.0
      -11   -1    0    0    0    0  0.00000000000E+00  0.00000000000E+00 -2.42603575830E+02  2.42603575830E+02  0.00000000000E+00  0.0000E+00  9.0
  3000025    2    1    2    0    0 -6.00008375921E+00 -1.71235471282E+02 -7.33904023717E+01  2.44698016318E+02  1.58535107782E+02  1.2435E-12  9.0
 -3000025    2    1    2    0    0  6.00008375921E+00  1.71235471282E+02  8.07868265417E+01  2.47905559516E+02  1.59915813683E+02  8.7060E-13  9.0
        4    1    3    3  500    0  2.94878710224E+01 -4.36848770194E+01 -2.55394170554E+01  5.85860083054E+01  1.46817165330E+00  0.0000E+00  9.0
       -3    1    3    3    0  500 -2.99202034265E+01  4.83799303167E+00  6.20001283903E+00  3.09371121610E+01  2.00000000000E-01  0.0000E+00  9.0
  3000022    1    3    3    0    0 -5.56775135535E+00 -1.32388587294E+02 -5.40509981558E+01  1.55174895851E+02  6.00000000000E+01  0.0000E+00  9.0
       -2    1    4    4    0  504  4.82285019067E+01  8.28623256893E+01  3.44790005650E+01  1.01886971217E+02  3.00000000000E-03  0.0000E+00  9.0
        1    1    4    4  504    0 -3.39010813085E+01  6.54581848481E+01  2.48538991627E+01  7.77931462668E+01  5.00000000000E-03  0.0000E+00  9.0
  3000022    1    4    4    0    0 -8.32733683896E+00  2.29149607443E+01  2.14539268139E+01  6.82254420321E+01  6.00000000000E+01  0.0000E+00  9.0
</event>
<event>
10    1   3.4312288E-02   4.9940000E+02  -1.0000000E+00   9.3510000E-02
       11   -1    0    0    0    0  0.00000000000E+00  0.00000000000E+00  2.49352966300E+02  2.49352966300E+02  0.00000000000E+00  0.0000E+00  9.0
      -11   -1    0    0    0    0  0.00000000000E+00  0.00000000000E+00 -2.50000000000E+02  2.50000000000E+02  0.00000000000E+00  0.0000E+00  9.0
  3000025    2    1    2    0    0 -5.61757265434E+01 -1.82768145665E+02  1.29732707540E+01  2.49666117843E+02  1.60015490881E+02  1.3197E-12  9.0
 -3000025    2    1    2    0    0  5.61757265434E+01  1.82768145665E+02 -1.36203044520E+01  2.49686848463E+02  1.59994069513E+02  1.4059E-12  9.0
        4    1    3    3  500    0  8.25927515401E+00  1.17166357592E+00 -2.18946590260E+01  2.34759460613E+01  1.46817165330E+00  0.0000E+00  9.0
       -3    1    3    3    0  500 -2.55994183670E+01 -1.20454554390E+02 -3.46850782157E+00  1.23193751629E+02  2.00000000000E-01  0.0000E+00  9.0
  3000022    1    3    3    0    0 -3.88355833306E+01 -6.34852548499E+01  3.83364376015E+01  1.02996420151E+02  6.00000000000E+01  0.0000E+00  9.0
       -2    1    4    4    0  504  2.59746223363E+01  2.52431834473E+01  7.45652260509E+00  3.69797113892E+01  3.00000000000E-03  0.0000E+00  9.0
        1    1    4    4  504    0  6.62086203612E+00 -9.37774964252E+00 -3.14566600602E+01  3.34858102725E+01  5.00000000000E-03  0.0000E+00  9.0
  3000022    1    4    4    0    0  2.35802421708E+01  1.66902711860E+02  1.03798330030E+01  1.79221326801E+02  6.00000000000E+01  0.0000E+00  9.0
</event>
<event>
10    1   3.4312288E-02   4.5230000E+02  -1.0000000E+00   9.4610000E-02
       11   -1    0    0    0    0  0.00000000000E+00  0.00000000000E+00  2.49999999060E+02  2.49999999060E+02  0.00000000000E+00  0.0000E+00  9.0
      -11   -1    0    0    0    0  0.00000000000E+00  0.00000000000E+00 -2.04588894980E+02  2.04588894980E+02  0.00000000000E+00  0.0000E+00  9.0
  3000025    2    1    2    0    0  1.13692852348E+02  1.02958592010E+02  6.82525662066E+01  2.31950174106E+02  1.60049786412E+02  3.3411E-12  9.0
 -3000025    2    1    2    0    0 -1.13692852348E+02 -1.02958592010E+02 -2.28414621296E+01  2.22638719928E+02  1.59748962047E+02  1.0539E-12  9.0
        4    1    3    3  500    0 -6.42390429579E+00 -1.92828426327E+01 -1.33489154199E+01  2.43606986208E+01  1.46817165330E+00  0.0000E+00  9.0
       -3    1    3    3    0  500  5.73808972037E+01  3.27647355000E+01  3.19962479897E+01  7.34159052366E+01  2.00000000000E-01  0.0000E+00  9.0
  3000022    1    3    3    0    0  6.27358594403E+01  8.94766991432E+01  4.96052336369E+01  1.34173570249E+02  6.00000000000E+01  0.0000E+00  9.0
       -2    1    4    4    0  504 -5.62951481041E+01 -6.76938375263E+01 -7.50419630100E+00  8.83623919449E+01  3.00000000000E-03  0.0000E+00  9.0
        1    1    4    4  504    0 -3.15552830251E+01  2.49867960923E+01 -2.06660502666E+01  4.52455691132E+01  5.00000000000E-03  0.0000E+00  9.0
  3000022    1    4    4    0    0 -2.58424212194E+01 -6.02515505775E+01  5.32878443833E+00  8.90307588705E+01  6.00000000000E+01  0.0000E+00  9.0
</event>
<event>
10    1   3.4312288E-02   4.9440000E+02  -1.0000000E+00   9.3610000E-02
       11   -1    0    0    0    0  0.00000000000E+00  0.00000000000E+00  2.47892548590E+02  2.47892548590E+02  0.00000000000E+00  0.0000E+00  9.0
      -11   -1    0    0    0    0  0.00000000000E+00  0.00000000000E+00 -2.46552431810E+02  2.46552431810E+02  0.00000000000E+00  0.0000E+00  9.0
  3000025    2    1    2    0    0  1.12779199726E+01 -1.76951466182E+02  6.43682501873E+01  2.47298957744E+02  1.59920261400E+02  3.0304E-12  9.0
 -3000025    2    1    2    0    0 -1.12779199726E+01  1.76951466182E+02 -6.30281334043E+01  2.47146022651E+02  1.60217346279E+02  1.2373E-13  9.0
        2    1    3    3  500    0 -3.15515214012E+01 -4.51608770050E+00 -2.13855684617E+00  3.19447489462E+01  3.00000000000E-03  0.0000E+00  9.0
       -1    1    3    3    0  500  4.23094861778E+01 -4.23640103249E+01  7.14790742070E+00  6.02983797206E+01  5.00000000000E-03  0.0000E+00  9.0
  3000022    1    3    3    0    0  5.19955195354E-01 -1.30071368156E+02  5.93588996133E+01  1.55055829076E+02  6.00000000000E+01  0.0000E+00  9.0
       -2    1    4    4    0  504 -2.78077430434E+01  8.82361667701E+01  1.29202388949E+00  9.25232999529E+01  3.00000000000E-03  0.0000E+00  9.0
        1    1    4    4  504    0 -1.63234116665E+01  6.04354925423E+00 -4.13841513782E+01  4.48957265930E+01  5.00000000000E-03  0.0000E+00  9.0
  3000022    1    4    4    0    0  3.28532347372E+01  8.26717501579E+01 -2.29360059158E+01  1.09726996105E+02  6.00000000000E+01  0.0000E+00  9.0
</event>
<event>
10    1   3.4312288E-02   4.9770000E+02  -1.0000000E+00   9.3540000E-02
       11   -1    0    0    0    0  0.00000000000E+00  0.00000000000E+00  2.49999865380E+02  2.49999865380E+02  0.00000000000E+00  0.0000E+00  9.0
      -11   -1    0    0    0    0  0.00000000000E+00  0.00000000000E+00 -2.47688355790E+02  2.47688355790E+02  0.00000000000E+00  0.0000E+00  9.0
  3000025    2    1    2    0    0  1.06376403765E+02 -1.39907570689E+02  7.49664476493E+01  2.49199402030E+02  1.59969703647E+02  6.9359E-13  9.0
 -3000025    2    1    2    0    0 -1.06376403765E+02  1.39907570689E+02 -7.26549380593E+01  2.48488819144E+02  1.59930877572E+02  2.6122E-12  9.0
        2    1    3    3  500    0 -1.59015941946E+01 -1.01580567856E+01 -4.08867276632E+00  1.93070989426E+01  3.00000000000E-03  0.0000E+00  9.0
       -1    1    3    3    0  500  6.50564704739E+01 -4.78445371706E+01  7.95358448665E+01  1.13346348557E+02  5.00000000000E-03  0.0000E+00  9.0
  3000022    1    3    3    0    0  5.72215274863E+01 -8.19049767335E+01 -4.80724450733E-01  1.16545954531E+02  6.00000000000E+01  0.0000E+00  9.0
       -2    1    4    4    0  504 -8.58043194717E+01  8.05158845830E+01 -3.82770807801E+01  1.23734893350E+02  3.00000000000E-03  0.0000E+00  9.0
        1    1    4    4  504    0 -1.87687206373E+00 -5.35631770030E-01 -3.77984741460E+01  3.78488338381E+01  5.00000000000E-03  0.0000E+00  9.0
  3000022    1    4    4    0    0 -1.86952122294E+01  5.99273178764E+01  3.42061686686E+00  8.69050919562E+01  6.00000000000E+01  0.0000E+00  9.0
</event>
<event>
10    1   3.4312288E-02   4.9770000E+02  -1.0000000E+00   9.3540000E-02
       11   -1    0    0    0    0  0.00000000000E+00  0.00000000000E+00  2.47737899020E+02  2.47737899020E+02  0.00000000000E+00  0.0000E+00  9.0
      -11   -1    0    0    0    0  0.00000000000E+00  0.00000000000E+00 -2.49973248460E+02  2.49973248460E+02  0.00000000000E+00  0.0000E+00  9.0
  3000025    2    1    2    0    0 -1.68546676844E+02 -6.49175139440E+01  5.98674541175E+01  2.48616741948E+02  1.60012207104E+02  2.7309E-13  9.0
 -3000025    2    1    2    0    0  1.68546676844E+02  6.49175139440E+01 -6.21028035585E+01  2.49094405535E+02  1.59903091801E+02  1.0810E-12  9.0
        4    1    3    3  500    0  6.07889825991E+00 -1.04114954928E+01 -1.18363344368E+01  1.69589676383E+01  1.46817165330E+00  0.0000E+00  9.0
       -3    1    3    3    0  500 -1.18535589350E+02 -6.66305678507E+01  5.65116221924E+01  1.47254616082E+02  2.00000000000E-01  0.0000E+00  9.0
  3000022    1    3    3    0    0 -5.60899857529E+01  1.21245493995E+01  1.51921663620E+01  8.44031582269E+01  6.00000000000E+01  0.0000E+00  9.0
       -2    1    4    4    0  504  4.46623001173E+01 -2.57695398897E+01  1.46565217992E+01  5.36060059895E+01  3.00000000000E-03  0.0000E+00  9.0
        1    1    4    4  504    0  2.90404063587E+01  2.17614882821E+01 -4.88583122871E+01  6.08608435554E+01  5.00000000000E-03  0.0000E+00  9.0
  3000022    1    4    4    0    0  9.48439703669E+01  6.89255655509E+01 -2.79010130707E+01  1.34627555990E+02  6.00000000000E+01  0.0000E+00  9.0
</event>
<event>
10    1   3.4312288E-02   5.0000000E+02  -1.0000000E+00   9.3490000E-02
       11   -1    0    0    0    0  0.00000000000E+00  0.00000000000E+00  2.49999999710E+02  2.49999999710E+02  0.00000000000E+00  0.0000E+00  9.0
      -11   -1    0    0    0    0  0.00000000000E+00  0.00000000000E+00 -2.49999928020E+02  2.49999928020E+02  0.00000000000E+00  0.0000E+00  9.0
  3000025    2    1    2    0    0  3.41292393151E+01  1.34152111889E+02 -1.33171008247E+02  2.50002327751E+02  1.60015787792E+02  6.5306E-13  9.0
 -3000025    2    1    2    0    0 -3.41292393151E+01 -1.34152111889E+02  1.33171079947E+02  2.49997599981E+02  1.60008341537E+02  1.4983E-12  9.0
        2    1    3    3  500    0  5.64803601228E+01  5.62614151678E+01 -2.55380215162E+01  8.37112206830E+01  3.00000000000E-03  0.0000E+00  9.0
       -1    1    3    3    0  500 -1.31617463377E+00  2.74081246707E+01 -7.30754829470E+01  7.80574394057E+01  5.00000000000E-03  0.0000E+00  9.0
  3000022    1    3    3    0    0 -2.10349461739E+01  5.04825720509E+01 -3.45575037843E+01  8.82336676627E+01  6.00000000000E+01  0.0000E+00  9.0
       -4    1    4    4    0  504 -9.47203235793E+00 -4.86856794707E+01  5.73425249100E+01  7.58309664555E+01  1.46817165330E+00  0.0000E+00  9.0
        3    1    4    4  504    0  1.25372312996E+01  1.97179153394E+01 -5.00373002412E+00  2.38967710820E+01  2.00000000000E-01  0.0000E+00  9.0
  3000022    1    4    4    0    0 -3.71944382568E+01 -1.05184347758E+02  8.08322850623E+01  1.50269862444E+02  6.00000000000E+01  0.0000E+00  9.0
</event>
<event>
10    1   3.4312288E-02   4.9710000E+02  -1.0000000E+00   9.3560000E-02
       11   -1    0    0    0    0  0.00000000000E+00  0.00000000000E+00  2.47092873570E+02  2.47092873570E+02  0.00000000000E+00  0.0000E+00  9.0
      -11   -1    0    0    0    0  0.00000000000E+00  0.00000000000E+00 -2.49999919250E+02  2.49999919250E+02  0.00000000000E+00  0.0000E+00  9.0
  3000025    2    1    2    0    0 -1.38702020403E+02 -6.14593587665E+01 -1.15614034141E+02  2.49259360182E+02  1.60462208959E+02  2.0518E-12  9.0
 -3000025    2    1    2    0    0  1.38702020403E+02  6.14593587665E+01  1.12706988451E+02  2.47833432638E+02  1.60321682388E+02  3.4165E-12  9.0
        4    1    3    3  500    0 -3.40218207516E+01  2.18116876606E+01 -3.49982477102E+01  5.34814629254E+01  1.46817165330E+00  0.0000E+00  9.0
       -3    1    3    3    0  500 -5.48968886427E+01 -4.36993539224E+01  8.80450843304E+00  7.07167680585E+01  2.00000000000E-01  0.0000E+00  9.0
  3000022    1    3    3    0    0 -4.97833110078E+01 -3.95716925046E+01 -8.94202948639E+01  1.25061129197E+02  6.00000000000E+01  0.0000E+00  9.0
       -2    1    4    4    0  504  6.67206973497E+01 -4.69804061842E+00  9.32637362014E+01  1.14768669678E+02  3.00000000000E-03  0.0000E+00  9.0
        1    1    4    4  504    0  2.32221363107E+01  4.12055974678E+00 -1.52005763896E+01  2.80589410890E+01  5.00000000000E-03  0.0000E+00  9.0
  3000022    1    4    4    0    0  4.87591867424E+01  6.20368396372E+01  3.46438286391E+01  1.05005821871E+02  6.00000000000E+01  0.0000E+00  9.0
</event>
<event>
10    1   3.4312288E-02   4.9990000E+02  -1.0000000E+00   9.3490000E-02
       11   -1    0    0    0    0  0.00000000000E+00  0.00000000000E+00  2.49999999980E+02  2.49999999980E+02  0.00000000000E+00  0.0000E+00  9.0
      -11   -1    0    0    0    0  0.00000000000E+00  0.00000000000E+00 -2.49870479060E+02  2.49870479060E+02  0.00000000000E+00  0.0000E+00  9.0
  3000025    2    1    2    0    0  7.30582504971E+00 -1.91471826822E+02 -1.37644628328E+01  2.50000711837E+02  1.59987686826E+02  3.3563E-12  9.0
 -3000025    2    1    2    0    0 -7.30582504971E+00  1.91471826822E+02  1.38939837558E+01  2.49869767211E+02  1.59771781724E+02  3.3248E-13  9.0
       14    1    3    3    0    0 -3.95662982088E-02  1.40907614753E+01 -8.32614725123E+00  1.63669133466E+01  0.00000000000E+00  0.0000E+00  9.0
      -13    1    3    3    0    0 -3.26805195426E+01 -9.98365322158E+01 -1.03277287758E+01  1.05555779930E+02  1.05700000000E-01  0.0000E+00  9.0
  3000022    1    3    3    0    0  4.00259108907E+01 -1.05726056081E+02  4.88941319391E+00  1.28078018561E+02  6.00000000000E+01  0.0000E+00  9.0
       -2    1    4    4    0  500 -4.81594362536E-01 -1.20694901953E+01  2.05753111363E+01  2.38589179147E+01  3.00000000000E-03  0.0000E+00  9.0
        1    1    4    4  500    0  1.78640798376E+01  7.83112628841E+01 -2.41961028213E+01  8.38882033404E+01  5.00000000000E-03  0.0000E+00  9.0
  3000022    1    4    4    0    0 -2.46883105247E+01  1.25230054133E+02  1.75147754408E+01  1.42122645956E+02  6.00000000000E+01  0.0000E+00  9.0
</event>
<event>
10    1   3.4312288E-02   4.9720000E+02  -1.0000000E+00   9.3550000E-02
       11   -1    0    0    0    0  0.00000000000E+00  0.00000000000E+00  2.47202600370E+02  2.47202600370E+02  0.00000000000E+00  0.0000E+00  9.0
      -11   -1    0    0    0    0  0.00000000000E+00  0.00000000000E+00 -2.49997314920E+02  2.49997314920E+02  0.00000000000E+00  0.0000E+00  9.0
  3000025    2    1    2    0    0  1.61208593295E+02  1.00935500010E+02  4.93290358867E+00  2.48532171590E+02  1.59899096504E+02  2.0726E-12  9.0
 -3000025    2    1    2    0    0 -1.61208593295E+02 -1.00935500010E+02 -7.72761814347E+00  2.48667743698E+02  1.59999202995E+02  2.1257E-12  9.0
       14    1    3    3    0    0  1.19668369839E+02  4.91759947807E+01 -1.00824310526E+01  1.29770769507E+02  0.00000000000E+00  0.0000E+00  9.0
      -13    1    3    3    0    0  7.62481155519E+00  1.34129969363E+01 -2.57189919362E+01  2.99920648967E+01  1.05700000000E-01  0.0000E+00  9.0
  3000022    1    3    3    0    0  3.39154119014E+01  3.83465082934E+01  4.07343265775E+01  8.87693371861E+01  6.00000000000E+01  0.0000E+00  9.0
      -14    1    4    4    0    0 -9.19470681633E+01 -1.56805579471E+01 -2.46294228804E+01  9.64715072587E+01  0.00000000000E+00  0.0000E+00  9.0
       13    1    4    4    0    0 -2.95621338322E+01 -6.38973081333E+01 -1.26640112369E+01  7.15344259534E+01  1.05700000000E-01  0.0000E+00  9.0
  3000022    1    4    4    0    0 -3.96993912985E+01 -2.13576339297E+01  2.95658159728E+01  8.06618104848E+01  6.00000000000E+01  0.0000E+00  9.0
</event>
<event>
10    1   3.4312288E-02   4.9640000E+02  -1.0000000E+00   9.3570000E-02
       11   -1    0    0    0    0  0.00000000000E+00  0.00000000000E+00  2.49999974110E+02  2.49999974110E+02  0.00000000000E+00  0.0000E+00  9.0
      -11   -1    0    0    0    0  0.00000000000E+00  0.00000000000E+00 -2.46404069030E+02  2.46404069030E+02  0.00000000000E+00  0.0000E+00  9.0
  3000025    2    1    2    0    0 -1.69017409522E+02 -8.26488168975E+01 -2.37656009477E+01  2.48098158765E+02  1.59969312489E+02  2.2505E-13  9.0
 -3000025    2    1    2    0    0  1.69017409522E+02  8.26488168975E+01  2.73615060297E+01  2.48305884366E+02  1.59716776021E+02  4.2363E-13  9.0
        2    1    3    3  500    0  1.46427970154E+01 -1.42515291002E+01 -2.11140282765E+01  2.93823039462E+01  3.00000000000E-03  0.0000E+00  9.0
       -1    1    3    3    0  500 -9.42271930377E+01 -3.25482686270E+01 -2.55760540348E+01  1.02918843092E+02  5.00000000000E-03  0.0000E+00  9.0
  3000022    1    3    3    0    0 -8.94330135000E+01 -3.58490191703E+01  2.29244813636E+01  1.15797011727E+02  6.00000000000E+01  0.0000E+00  9.0
       -4    1    4    4    0  504  2.56152379130E+01 -1.14414757089E+01 -1.03631958239E+01  2.99432652766E+01  1.46817165330E+00  0.0000E+00  9.0
        3    1    4    4  504    0  9.13602408229E+01  7.65323186088E+01  6.08236051852E+01  1.33803738149E+02  2.00000000000E-01  0.0000E+00  9.0
  3000022    1    4    4    0    0  5.20419307860E+01  1.75579739975E+01 -2.30989033317E+01  8.45588809408E+01  6.00000000000E+01  0.0000E+00  9.0
</event>
<event>
10    1   3.4312288E-02   3.8020000E+02  -1.0000000E+00   9.6620000E-02
       11   -1    0    0    0    0  0.00000000000E+00  0.00000000000E+00  2.40094537410E+02  2.40094537410E+02  0.00000000000E+00  0.0000E+00  9.0
      -11   -1    0    0    0    0  0.00000000000E+00  0.00000000000E+00 -1.50505908600E+02  1.50505908600E+02  0.00000000000E+00  0.0000E+00  9.0
  3000025    2    1    2    0    0 -8.09858952505E+01  5.02058282345E+01  8.42462940023E+01  2.04257689385E+02  1.59826234397E+02  6.7716E-13  9.0
 -3000025    2    1    2    0    0  8.09858952505E+01 -5.02058282345E+01  5.34233481138E+00  1.86342756627E+02  1.60049186152E+02  3.9213E-13  9.0
        4    1    3    3  500    0 -7.45926995987E+01  4.75739115920E+01  1.05372723280E+01  8.91096938257E+01  1.46817165330E+00  0.0000E+00  9.0
       -3    1    3    3    0  500  1.51833541670E+01  1.55764137821E+01  2.87974846666E+01  3.60900821999E+01  2.00000000000E-01  0.0000E+00  9.0
  3000022    1    3    3    0    0 -2.15765498188E+01 -1.29444971399E+01  4.49115370077E+01  7.90579133590E+01  6.00000000000E+01  0.0000E+00  9.0
       -2    1    4    4    0  504 -2.14965578647E+01 -1.77092636587E+01  7.88513053245E+00  2.89464214002E+01  3.00000000000E-03  0.0000E+00  9.0
        1    1    4    4  504    0  5.49000897937E+01 -1.45727185559E+01 -4.08021063594E+01  6.99370852541E+01  5.00000000000E-03  0.0000E+00  9.0
  3000022    1    4    4    0    0  4.75823633215E+01 -1.79238460200E+01  3.82593106376E+01  8.74592499732E+01  6.00000000000E+01  0.0000E+00  9.0
</event>
<event>
10    1   3.4312288E-02   4.5420000E+02  -1.0000000E+00   9.4570000E-02
       11   -1    0    0    0    0  0.00000000000E+00  0.00000000000E+00  2.14976213970E+02  2.14976213970E+02  0.00000000000E+00  0.0000E+00  9.0
      -11   -1    0    0    0    0  0.00000000000E+00  0.00000000000E+00 -2.39861727870E+02  2.39861727870E+02  0.00000000000E+00  0.0000E+00  9.0
  3000025    2    1    2    0    0 -5.29014157544E+01  8.64208255688E+01 -1.38408490172E+02  2.33855408125E+02  1.58947547564E+02  1.5017E-12  9.0
 -3000025    2    1    2    0    0  5.29014157544E+01 -8.64208255688E+01  1.13522976272E+02  2.20982533712E+02  1.60245733744E+02  3.2413E-12  9.0
        4    1    3    3  500    0 -5.52441100560E+01  2.35615085236E+01 -5.17739231693E+01  7.93079505985E+01  1.46817165330E+00  0.0000E+00  9.0
       -3    1    3    3    0  500  1.87406910231E+01  4.24672467946E+01 -7.47935310772E+01  8.80272278408E+01  2.00000000000E-01  0.0000E+00  9.0
  3000022    1    3    3    0    0 -1.63979967218E+01  2.03920702501E+01 -1.18410359249E+01  6.65202296850E+01  6.00000000000E+01  0.0000E+00  9.0
       -2    1    4    4    0  504  2.49666304167E+00 -4.65545447926E+01  7.12394443943E+01  8.51388126168E+01  3.00000000000E-03  0.0000E+00  9.0
        1    1    4    4  504    0  4.08504341244E+01 -4.11978547839E+01 -5.86192154907E+00  5.83128061081E+01  5.00000000000E-03  0.0000E+00  9.0
  3000022    1    4    4    0    0  9.55431858823E+00  1.33157400780E+00  4.81454534263E+01  7.75309149865E+01  6.00000000000E+01  0.0000E+00  9.0
</event>
<event>
10    1   3.4312288E-02   4.9450000E+02  -1.0000000E+00   9.3610000E-02
       11   -1    0    0    0    0  0.00000000000E+00  0.00000000000E+00  2.44547059090E+02  2.44547059090E+02  0.00000000000E+00  0.0000E+00  9.0
      -11   -1    0    0    0    0  0.00000000000E+00  0.00000000000E+00 -2.49995499160E+02  2.49995499160E+02  0.00000000000E+00  0.0000E+00  9.0
  3000025    2    1    2    0    0  2.29829997596E+01 -7.26860054547E+01  1.69588671399E+02  2.45392673745E+02  1.60142977349E+02  4.6794E-13  9.0
 -3000025    2    1    2    0    0 -2.29829997596E+01  7.26860054547E+01 -1.75037111469E+02  2.49149884512E+02  1.60081856855E+02  9.2570E-13  9.0
        4    1    3    3  500    0 -5.81696939114E+00  9.93663939200E-01 -1.44663870973E+01  1.56925582546E+01  1.46817165330E+00  0.0000E+00  9.0
       -3    1    3    3    0  500 -2.03982588503E+01 -3.31624739639E+01  1.04115317298E+02  1.11156996809E+02  2.00000000000E-01  0.0000E+00  9.0
  3000022    1    3    3    0    0  4.91982280011E+01 -4.05171954304E+01  7.99397411980E+01  1.18543118682E+02  6.00000000000E+01  0.0000E+00  9.0
       -4    1    4    4    0  504 -2.90388191848E+01  5.87756908794E+01 -1.13385028723E+02  1.30981506803E+02  1.46817165330E+00  0.0000E+00  9.0
        3    1    4    4  504    0  3.03701756874E+01  1.65781268967E+01 -1.23098687441E+01  3.67253962699E+01  2.00000000000E-01  0.0000E+00  9.0
  3000022    1    4    4    0    0 -2.43143562621E+01 -2.66781232155E+00 -4.93422140022E+01  8.14429814389E+01  6.00000000000E+01  0.0000E+00  9.0
</event>
<event>
10    1   3.4312288E-02   4.9990000E+02  -1.0000000E+00   9.3490000E-02
       11   -1    0    0    0    0  0.00000000000E+00  0.00000000000E+00  2.49999974230E+02  2.49999974230E+02  0.00000000000E+00  0.0000E+00  9.0
      -11   -1    0    0    0    0  0.00000000000E+00  0.00000000000E+00 -2.49923232640E+02  2.49923232640E+02  0.00000000000E+00  0.0000E+00  9.0
  3000025    2    1    2    0    0 -1.00477236917E+02 -1.37698916882E+02 -8.84177065750E+01  2.49984510510E+02  1.60055920884E+02  1.8741E-12  9.0
 -3000025    2    1    2    0    0  1.00477236917E+02  1.37698916882E+02  8.84944481660E+01  2.49938696369E+02  1.59941919887E+02  1.2819E-12  9.0
        2    1    3    3  500    0 -6.78612755036E+01 -5.53552337056E+01  4.53610534660E+00  8.76922509250E+01  3.00000000000E-03  0.0000E+00  9.0
       -1    1    3    3    0  500  1.29803408820E+01 -4.73626812151E+01 -2.58621837071E+01  5.55028413002E+01  5.00000000000E-03  0.0000E+00  9.0
  3000022    1    3    3    0    0 -4.55963022953E+01 -3.49810019620E+01 -6.70916282140E+01  1.06789418285E+02  6.00000000000E+01  0.0000E+00  9.0
       -2    1    4    4    0  504  6.66893775803E+00  1.11530563536E+01  5.25520173686E+01  5.41348310735E+01  3.00000000000E-03  0.0000E+00  9.0
        1    1    4    4  504    0  1.17586408131E+01  3.50924831579E+01 -2.64684942395E+01  4.55008705440E+01  5.00000000000E-03  0.0000E+00  9.0
  3000022    1    4    4    0    0  8.20496583448E+01  9.14533773705E+01  6.24109250367E+01  1.50302994750E+02  6.00000000000E+01  0.0000E+00  9.0
</event>
<event>
10    1   3.4312288E-02   4.3830000E+02  -1.0000000E+00   9.4970000E-02
       11   -1    0    0    0    0  0.00000000000E+00  0.00000000000E+00  1.92115129890E+02  1.92115129890E+02  0.00000000000E+00  0.0000E+00  9.0
      -11   -1    0    0    0    0  0.00000000000E+00  0.00000000000E+00 -2.50000000000E+02  2.50000000000E+02  0.00000000000E+00  0.0000E+00  9.0
  3000025    2    1    2    0    0  4.08342508887E+01  1.30069148678E+02  3.33872203053E+01  2.12926866866E+02  1.60117846195E+02  2.6537E-13  9.0
 -3000025    2    1    2    0    0 -4.08342508887E+01 -1.30069148678E+02 -9.12720904133E+01  2.29188263023E+02  1.60035139691E+02  4.4948E-15  9.0
        4    1    3    3  500    0  6.82714820152E+00  2.78477674111E+01 -3.19452981306E+01  4.29507357679E+01  1.46817165330E+00  0.0000E+00  9.0
       -3    1    3    3    0  500 -5.99880570613E+00  7.93301768316E+01  4.59471711275E+01  9.18718953797E+01  2.00000000000E-01  0.0000E+00  9.0
  3000022    1    3    3    0    0  4.00059083934E+01  2.28912044350E+01  1.93853473092E+01  7.81042357185E+01  6.00000000000E+01  0.0000E+00  9.0
       -2    1    4    4    0  504  1.11080595339E+00 -9.12306465882E+00  2.20715413833E+01  2.39085161955E+01  3.00000000000E-03  0.0000E+00  9.0
        1    1    4    4  504    0  6.40819894280E+00 -2.75442288409E+01 -7.19586835407E+01  7.73162448521E+01  5.00000000000E-03  0.0000E+00  9.0
  3000022    1    4    4    0    0 -4.83532557854E+01 -9.34018551782E+01 -4.13849482556E+01  1.27963501976E+02  6.00000000000E+01  0.0000E+00  9.0
</event>
<event>
10    1   3.4312288E-02   5.0000000E+02  -1.0000000E+00   9.3490000E-02
       11   -1    0    0    0    0  0.00000000000E+00  0.00000000000E+00  2.50000000000E+02  2.50000000000E+02  0.00000000000E+00  0.0000E+00  9.0
      -11   -1    0    0    0    0  0.00000000000E+00  0.00000000000E+00 -2.49999815670E+02  2.49999815670E+02  0.00000000000E+00  0.0000E+00  9.0
  3000025    2    1    2    0    0 -1.33001807485E+02 -1.37692558890E+02  1.80125029611E+01  2.49958564284E+02  1.59706330583E+02  1.8934E-12  9.0
 -3000025    2    1    2    0    0  1.33001807485E+02  1.37692558890E+02 -1.80123186271E+01  2.50041251376E+02  1.59835735052E+02  2.0697E-14  9.0
        4    1    3    3  500    0 -4.31436674710E+01 -2.30549308911E+01 -2.32585507801E+01  5.41850679951E+01  1.46817165330E+00  0.0000E+00  9.0
       -3    1    3    3    0  500 -6.03431387362E+01 -9.74171345204E+01  5.21014619057E+01  1.25880875527E+02  2.00000000000E-01  0.0000E+00  9.0
  3000022    1    3    3    0    0 -2.95150012774E+01 -1.72204934789E+01 -1.08304081646E+01  6.98926207627E+01  6.00000000000E+01  0.0000E+00  9.0
      -14    1    4    4    0    0  9.34938392869E+01  9.02072912828E+01 -1.51556085709E+01  1.30798111058E+02  0.00000000000E+00  0.0000E+00  9.0
       13    1    4    4    0    0  8.26127799118E+00 -6.65218972199E+00 -2.72408369637E+01  2.92331098776E+01  1.05700000000E-01  0.0000E+00  9.0
  3000022    1    4    4    0    0  3.12466902066E+01  5.41374573293E+01  2.43841269069E+01  9.00100304409E+01  6.00000000000E+01  0.0000E+00  9.0
</event>
<event>
10    1   3.4312288E-02   4.8820000E+02  -1.0000000E+00   9.3760000E-02
       11   -1    0    0    0    0  0.00000000000E+00  0.00000000000E+00  2.38335549230E+02  2.38335549230E+02  0.00000000000E+00  0.0000E+00  9.0
      -11   -1    0    0    0    0  0.00000000000E+00  0.00000000000E+00 -2.49999978510E+02  2.49999978510E+02  0.00000000000E+00  0.0000E+00  9.0
  3000025    2    1    2    0    0  9.09570985335E+01  1.13231286885E+02 -1.19385815579E+02  2.46915447985E+02  1.60061698694E+02  4.9856E-13  9.0
 -3000025    2    1    2    0    0 -9.09570985335E+01 -1.13231286885E+02  1.07721386299E+02  2.41420079756E+02  1.59953867537E+02  9.9085E-13  9.0
        2    1    3    3  500    0  2.05943809504E+01 -1.00137610829E+01  1.14393761345E+01  2.55981107330E+01  3.00000000000E-03  0.0000E+00  9.0
       -1    1    3    3    0  500 -8.74600742540E+00  1.54147254552E+01 -5.18940613651E+01  5.48370316183E+01  5.00000000000E-03  0.0000E+00  9.0
  3000022    1    3    3    0    0  7.91087250084E+01  1.07830322514E+02 -7.89311303488E+01  1.66480305634E+02  6.00000000000E+01  0.0000E+00  9.0
       -2    1    4    4    0  504 -6.68018462106E+01 -4.35471726058E+01  9.58373140853E+01  1.24674109899E+02  3.00000000000E-03  0.0000E+00  9.0
        1    1    4    4  504    0  1.77204472382E+01 -2.36564021005E+01  5.53936886080E+00  3.00719843549E+01  5.00000000000E-03  0.0000E+00  9.0
  3000022    1    4    4    0    0 -4.18756995615E+01 -4.60277121783E+01  6.34470335302E+00  8.66739855018E+01  6.00000000000E+01  0.0000E+00  9.0
</event>
<event>
10    1   3.4312288E-02   4.9350000E+02  -1.0000000E+00   9.3640000E-02
       11   -1    0    0    0    0  0.00000000000E+00  0.00000000000E+00  2.43543420770E+02  2.43543420770E+02  0.00000000000E+00  0.0000E+00  9.0
      -11   -1    0    0    0    0  0.00000000000E+00  0.00000000000E+00 -2.49995868810E+02  2.49995868810E+02  0.00000000000E+00  0.0000E+00  9.0
  3000025    2    1    2    0    0  1.42077582696E+02  2.21772273129E+01  1.17646150100E+02  2.45169458070E+02  1.59967426750E+02  6.8542E-13  9.0
 -3000025    2    1    2    0    0 -1.42077582696E+02 -2.21772273129E+01 -1.24098598130E+02  2.48369831513E+02  1.60028879368E+02  9.4618E-13  9.0
        2    1    3    3  500    0 -1.60939472109E+01 -5.25804241827E-01  2.83716802642E+01  3.26227506035E+01  3.00000000000E-03  0.0000E+00  9.0
       -1    1    3    3    0  500  5.98195450110E+01  3.36911085321E+00 -8.10784906615E+00  6.04604508315E+01  5.00000000000E-03  0.0000E+00  9.0
  3000022    1    3    3    0    0  9.83519848959E+01  1.93339207016E+01  9.73823189015E+01  1.52086256635E+02  6.00000000000E+01  0.0000E+00  9.0
       -2    1    4    4    0  504  2.11300757376E+01  3.66945646112E+00  2.75357556677E-01  2.14480964699E+01  3.00000000000E-03  0.0000E+00  9.0
        1    1    4    4  504    0 -6.31271983747E+01  1.35615365741E+01 -5.90971233454E+01  8.75295862071E+01  5.00000000000E-03  0.0000E+00  9.0
  3000022    1    4    4    0    0 -1.00080460059E+02 -3.94082203475E+01 -6.52768323420E+01  1.39392148836E+02  6.00000000000E+01  0.0000E+00  9.0
</event>
<event>
10    1   3.4312288E-02   4.2720000E+02  -1.0000000E+00   9.5260000E-02
       11   -1    0    0    0    0  0.00000000000E+00  0.00000000000E+00  1.85980311730E+02  1.85980311730E+02  0.00000000000E+00  0.0000E+00  9.0
      -11   -1    0    0    0    0  0.00000000000E+00  0.00000000000E+00 -2.45318374360E+02  2.45318374360E+02  0.00000000000E+00  0.0000E+00  9.0
  3000025    2    1    2    0    0  2.35150308282E+01  1.38147065103E+02 -4.66416814330E+01  2.17562414274E+02  1.59751023115E+02  2.5888E-13  9.0
 -3000025    2    1    2    0    0 -2.35150308282E+01 -1.38147065103E+02 -1.26963811960E+01  2.13736271815E+02  1.60886380787E+02  3.9775E-12  9.0
        2    1    3    3  500    0 -4.25578151737E+01  1.93055753037E+01 -1.88170755579E+01  5.03781223520E+01  3.00000000000E-03  0.0000E+00  9.0
       -1    1    3    3    0  500  2.55457877269E+01  3.43648684769E+01  1.85262500568E+01  4.66556901373E+01  5.00000000000E-03  0.0000E+00  9.0
  3000022    1    3    3    0    0  4.05270582760E+01  8.44766213228E+01 -4.63508559314E+01  1.20528601785E+02  6.00000000000E+01  0.0000E+00  9.0
       -2    1    4    4    0  504 -4.79724218331E+00  1.34691841238E+01 -3.39968327290E+01  3.68811211616E+01  3.00000000000E-03  0.0000E+00  9.0
        1    1    4    4  504    0  1.41791402772E+01 -5.59916783118E+01  1.12190672514E+01  5.88386229798E+01  5.00000000000E-03  0.0000E+00  9.0
  3000022    1    4    4    0    0 -3.28969289217E+01 -9.56245709152E+01  1.00813842817E+01  1.18016527674E+02  6.00000000000E+01  0.0000E+00  9.0
</event>
<event>
10    1   3.4312288E-02   4.9100000E+02  -1.0000000E+00   9.3690000E-02
       11   -1    0    0    0    0  0.00000000000E+00  0.00000000000E+00  2.44497208550E+02  2.44497208550E+02  0.00000000000E+00  0.0000E+00  9.0
      -11   -1    0    0    0    0  0.00000000000E+00  0.00000000000E+00 -2.46514952370E+02  2.46514952370E+02  0.00000000000E+00  0.0000E+00  9.0
  3000025    2    1    2    0    0  1.81859886187E+02  2.05548360003E+01 -3.54286745864E+01  2.45689780288E+02  1.60039862747E+02  8.3766E-13  9.0
 -3000025    2    1    2    0    0 -1.81859886187E+02 -2.05548360003E+01  3.34109307644E+01  2.45322380627E+02  1.59910164326E+02  7.2546E-13  9.0
       14    1    3    3    0    0  6.38461206046E+01 -3.72798956417E+01  1.98760674189E+01  7.65583162782E+01  0.00000000000E+00  0.0000E+00  9.0
      -13    1    3    3    0    0  1.61468077352E+01  3.43197118302E+01 -4.03934628231E+00  3.81430139216E+01  1.05700000000E-01  0.0000E+00  9.0
  3000022    1    3    3    0    0  1.01866957847E+02  2.35150198108E+01 -5.12653957234E+01  1.30988450088E+02  6.00000000000E+01  0.0000E+00  9.0
       -2    1    4    4    0  500 -8.86525016534E+01 -4.32513739990E+01  4.33458932159E+01  1.07744205737E+02  3.00000000000E-03  0.0000E+00  9.0
        1    1    4    4  500    0  1.26575157967E+01  7.69013388387E-01 -5.58492368246E+00  1.38562435485E+01  5.00000000000E-03  0.0000E+00  9.0
  3000022    1    4    4    0    0 -1.05864900330E+02  2.19275246100E+01 -4.35003876938E+00  1.23721931341E+02  6.00000000000E+01  0.0000E+00  9.0
</event>
<event>
10    1   3.4312288E-02   4.8480000E+02  -1.0000000E+00   9.3830000E-02
       11   -1    0    0    0    0  0.00000000000E+00  0.00000000000E+00  2.37831877760E+02  2.37831877760E+02  0.00000000000E+00  0.0000E+00  9.0
      -11   -1    0    0    0    0  0.00000000000E+00  0.00000000000E+00 -2.47046254390E+02  2.47046254390E+02  0.00000000000E+00  0.0000E+00  9.0
  3000025    2    1    2    0    0 -4.38096482329E+01 -1.72741236395E+02 -4.21511390024E+01  2.43137656317E+02  1.59938680032E+02  7.1642E-12  9.0
 -3000025    2    1    2    0    0  4.38096482329E+01  1.72741236395E+02  3.29367623684E+01  2.41740475825E+02  1.59983772012E+02  1.1365E-12  9.0
        2    1    3    3  500    0 -4.67506150424E+01 -9.54974500758E+01 -1.34915897252E+01  1.07179316942E+02  3.00000000000E-03  0.0000E+00  9.0
       -1    1    3    3    0  500 -9.97445769766E+00  1.59250339340E+01  4.96239640913E+00  1.94350692122E+01  5.00000000000E-03  0.0000E+00  9.0
  3000022    1    3    3    0    0  1.29154245077E+01 -9.31688202532E+01 -3.36219456863E+01  1.16523270162E+02  6.00000000000E+01  0.0000E+00  9.0
       -2    1    4    4    0  504 -1.06028209098E+01  8.77960971138E+01 -2.40778515725E+00  8.84667842641E+01  3.00000000000E-03  0.0000E+00  9.0
        1    1    4    4  504    0  1.39146377997E+01  2.25447581599E+01  5.00000144143E+01  5.65851988776E+01  5.00000000000E-03  0.0000E+00  9.0
  3000022    1    4    4    0    0  4.04978313431E+01  6.24003811213E+01 -1.46554668887E+01  9.66884926830E+01  6.00000000000E+01  0.0000E+00  9.0
</event>
<event>
10    1   3.4312288E-02   5.0000000E+02  -1.0000000E+00   9.3490000E-02
       11   -1    0    0    0    0  0.00000000000E+00  0.00000000000E+00  2.49999925880E+02  2.49999925880E+02  0.00000000000E+00  0.0000E+00  9.0
      -11   -1    0    0    0    0  0.00000000000E+00  0.00000000000E+00 -2.49984031010E+02  2.49984031010E+02  0.00000000000E+00  0.0000E+00  9.0
  3000025    2    1    2    0    0  1.17017772908E+02 -1.48223952341E+02 -3.51287416701E+01  2.49976118294E+02  1.59970409770E+02  1.9546E-13  9.0
 -3000025    2    1    2    0    0 -1.17017772908E+02  1.48223952341E+02  3.51446365381E+01  2.50007838597E+02  1.60016482459E+02  1.5714E-12  9.0
        4    1    3    3  500    0  5.00540817089E+01 -3.24926429426E+01 -5.45585192864E+01  8.08700840598E+01  1.46817165330E+00  0.0000E+00  9.0
       -3    1    3    3    0  500 -6.90084378931E+00 -3.38644491242E+00  2.04736541119E+01  2.18700746877E+01  2.00000000000E-01  0.0000E+00  9.0
  3000022    1    3    3    0    0  7.38645349880E+01 -1.12344864485E+02 -1.04387649449E+00  1.47235959545E+02  6.00000000000E+01  0.0000E+00  9.0
       -2    1    4    4    0  504  1.72065002173E+01  2.00208816410E+01 -1.22516612220E+01  2.91033084564E+01  3.00000000000E-03  0.0000E+00  9.0
        1    1    4    4  504    0 -7.26818613137E+01  1.60312000033E+01  1.76300851565E+01  7.64883799358E+01  5.00000000000E-03  0.0000E+00  9.0
  3000022    1    4    4    0    0 -6.15424118104E+01  1.12171870696E+02  2.97662126035E+01  1.44416150204E+02  6.00000000000E+01  0.0000E+00  9.0
</event>
<event>
10    1   3.4312288E-02   4.5360000E+02  -1.0000000E+00   9.4580000E-02
       11   -1    0    0    0    0  0.00000000000E+00  0.00000000000E+00  2.35555333220E+02  2.35555333220E+02  0.00000000000E+00  0.0000E+00  9.0
      -11   -1    0    0    0    0  0.00000000000E+00  0.00000000000E+00 -2.18399341080E+02  2.18399341080E+02  0.00000000000E+00  0.0000E+00  9.0
  3000025    2    1    2    0    0  8.67535106826E+01 -1.32857285781E+02  3.42461191752E+01  2.27874804788E+02  1.59927796139E+02  1.1456E-12  9.0
 -3000025    2    1    2    0    0 -8.67535106826E+01  1.32857285781E+02 -1.70901270302E+01  2.26079869509E+02  1.60133709613E+02  3.2592E-14  9.0
        4    1    3    3  500    0  6.53687460609E+01 -8.88656527133E+01 -7.03441227340E+00  1.10552320997E+02  1.46817165330E+00  0.0000E+00  9.0
       -3    1    3    3    0  500  1.79073168601E+01 -1.72033541222E+01  4.50212400594E+01  5.14157509589E+01  2.00000000000E-01  0.0000E+00  9.0
  3000022    1    3    3    0    0  3.47744776196E+00 -2.67882789454E+01 -3.74070861084E+00  6.59067328329E+01  6.00000000000E+01  0.0000E+00  9.0
       -4    1    4    4    0  504 -8.23973889128E+01  5.45109326728E+01  2.58516667501E+01  1.02133420986E+02  1.46817165330E+00  0.0000E+00  9.0
        3    1    4    4  504    0  5.28504334732E+00 -8.09421652720E-01 -2.11312455330E+01  2.17980821260E+01  2.00000000000E-01  0.0000E+00  9.0
  3000022    1    4    4    0    0 -9.64116511717E+00  7.91557747610E+01 -2.18105482472E+01  1.02148366398E+02  6.00000000000E+01  0.0000E+00  9.0
</event>
<event>
10    1   3.4312288E-02   4.9720000E+02  -1.0000000E+00   9.3550000E-02
       11   -1    0    0    0    0  0.00000000000E+00  0.00000000000E+00  2.50000000000E+02  2.50000000000E+02  0.00000000000E+00  0.0000E+00  9.0
      -11   -1    0    0    0    0  0.00000000000E+00  0.00000000000E+00 -2.47169330610E+02  2.47169330610E+02  0.00000000000E+00  0.0000E+00  9.0
  3000025    2    1    2    0    0 -6.01277706775E+01 -1.69422541115E+02 -6.05005293359E+01  2.48416204686E+02  1.60408698193E+02  7.7586E-14  9.0
 -3000025    2    1    2    0    0  6.01277706775E+01  1.69422541115E+02  6.33311987259E+01  2.48753125924E+02  1.59837200553E+02  1.9471E-12  9.0
       14    1    3    3    0    0  1.85858340114E+01 -3.89647027929E+00 -3.99293548385E+01  4.42150323347E+01  0.00000000000E+00  0.0000E+00  9.0
      -13    1    3    3    0    0 -4.35411259711E+01 -6.08849565454E+01 -2.37062414231E+01  7.85162699017E+01  1.05700000000E-01  0.0000E+00  9.0
  3000022    1    3    3    0    0 -3.51724787180E+01 -1.04641114291E+02  3.13506692541E+00  1.25684902450E+02  6.00000000000E+01  0.0000E+00  9.0
       -4    1    4    4    0  500  3.51096496983E+00 -4.67119084301E+00  2.56420292117E+01  2.63403889305E+01  1.46817165330E+00  0.0000E+00  9.0
        3    1    4    4  500    0  1.39014756559E+01  1.32772958409E+02  3.45778872969E+01  1.37904241414E+02  2.00000000000E-01  0.0000E+00  9.0
  3000022    1    4    4    0    0  4.27153300518E+01  4.13207735490E+01  3.11128221672E+00  8.45084955798E+01  6.00000000000E+01  0.0000E+00  9.0
</event>
<event>
10    1   3.4312288E-02   4.8180000E+02  -1.0000000E+00   9.3900000E-02
       11   -1    0    0    0    0  0.00000000000E+00  0.00000000000E+00  2.34550029780E+02  2.34550029780E+02  0.00000000000E+00  0.0000E+00  9.0
      -11   -1    0    0    0    0  0.00000000000E+00  0.00000000000E+00 -2.47454322300E+02  2.47454322300E+02  0.00000000000E+00  0.0000E+00  9.0
  3000025    2    1    2    0    0 -1.38050944479E+02  7.98596263582E+01  7.74657839281E+01  2.38818345474E+02  1.59992597522E+02  2.8875E-12  9.0
 -3000025    2    1    2    0    0  1.38050944479E+02 -7.98596263582E+01 -9.03700764531E+01  2.43186006609E+02  1.59803191140E+02  3.6780E-13  9.0
        2    1    3    3  500    0 -7.72548132811E+01  2.33149815630E+01  2.53348891433E+01  8.45798507759E+01  3.00000000000E-03  0.0000E+00  9.0
       -1    1    3    3    0  500 -4.41765464995E+00  3.85194386286E+01  5.79852407877E+01  6.97535016976E+01  5.00000000000E-03  0.0000E+00  9.0
  3000022    1    3    3    0    0 -5.63784765475E+01  1.80252061664E+01 -5.85434600287E+00  8.44849930004E+01  6.00000000000E+01  0.0000E+00  9.0
       -4    1    4    4    0  504  1.59823023046E+01  2.01713056406E+01  3.33623550582E+00  2.59923364389E+01  1.46817165330E+00  0.0000E+00  9.0
        3    1    4    4  504    0  5.35430656680E+01 -4.75263797640E+01 -8.58280411016E+01  1.11768104994E+02  2.00000000000E-01  0.0000E+00  9.0
  3000022    1    4    4    0    0  6.85255765064E+01 -5.25045522348E+01 -7.87827085725E+00  1.05425565176E+02  6.00000000000E+01  0.0000E+00  9.0
</event>
<event>
10    1   3.4312288E-02   5.0000000E+02  -1.0000000E+00   9.3490000E-02
       11   -1    0    0    0    0  0.00000000000E+00  0.00000000000E+00  2.49999999990E+02  2.49999999990E+02  0.00000000000E+00  0.0000E+00  9.0
      -11   -1    0    0    0    0  0.00000000000E+00  0.00000000000E+00 -2.50000000000E+02  2.50000000000E+02  0.00000000000E+00  0.0000E+00  9.0
  3000025    2    1    2    0    0  1.57230538650E+02 -9.07920246678E+01 -6.24264666152E+01  2.49967960567E+02  1.60069620942E+02  4.2805E-13  9.0
 -3000025    2    1    2    0    0 -1.57230538650E+02  9.07920246678E+01  6.24264666062E+01  2.50032039423E+02  1.60169669343E+02  9.0693E-13  9.0
        4    1    3    3  500    0  1.12033980724E+02 -6.90299012161E+01  4.86248648114E+00  1.31691075634E+02  1.46817165330E+00  0.0000E+00  9.0
       -3    1    3    3    0  500  9.95914925486E+00  1.49516219961E+01 -1.80375796954E+01  2.54583961683E+01  2.00000000000E-01  0.0000E+00  9.0
  3000022    1    3    3    0    0  3.52374086696E+01 -3.67137454470E+01 -4.92513734012E+01  9.28184887638E+01  6.00000000000E+01  0.0000E+00  9.0
      -14    1    4    4    0    0 -5.02807486593E+01 -1.13176241036E+01  6.01138869360E+01  7.91828371786E+01  0.00000000000E+00  0.0000E+00  9.0
       13    1    4    4    0    0 -5.96993486855E+01  3.71326555809E+01 -3.64316747129E+00  7.03997882502E+01  1.05700000000E-01  0.0000E+00  9.0
  3000022    1    4    4    0    0 -4.72504413046E+01  6.49769931915E+01  5.95574714148E+00  1.00449413994E+02  6.00000000000E+01  0.0000E+00  9.0
</event>
<event>
10    1   3.4312288E-02   4.8180000E+02  -1.0000000E+00   9.3900000E-02
       11   -1    0    0    0    0  0.00000000000E+00  0.00000000000E+00  2.49999999670E+02  2.49999999670E+02  0.00000000000E+00  0.0000E+00  9.0
      -11   -1    0    0    0    0  0.00000000000E+00  0.00000000000E+00 -2.32085196460E+02  2.32085196460E+02  0.00000000000E+00  0.0000E+00  9.0
  3000025    2    1    2    0    0  6.39061695123E+01 -1.52550780674E+02 -6.22445824875E+01  2.38359682607E+02  1.59953777877E+02  1.2540E-12  9.0
 -3000025    2    1    2    0    0 -6.39061695123E+01  1.52550780674E+02  8.01593857005E+01  2.43725513517E+02  1.60065173092E+02  5.4232E-13  9.0
        4    1    3    3  500    0  6.86364411187E+01 -1.17205110154E+02 -4.54602099870E+01  1.43236814806E+02  1.46817165330E+00  0.0000E+00  9.0
       -3    1    3    3    0  500 -1.09557252309E+01 -1.19110521762E+00 -2.30200933889E+01  2.55227613437E+01  2.00000000000E-01  0.0000E+00  9.0
  3000022    1    3    3    0    0  6.22545362356E+00 -3.41545653023E+01  6.23572088732E+00  6.96001064568E+01  6.00000000000E+01  0.0000E+00  9.0
       -4    1    4    4    0  504 -1.27696274024E+01  6.80401160615E+01  6.45734854188E+01  9.46805752243E+01  1.46817165330E+00  0.0000E+00  9.0
        3    1    4    4  504    0 -3.03325921258E+01  6.72669942891E+01 -1.68377625300E+01  7.56866230769E+01  2.00000000000E-01  0.0000E+00  9.0
  3000022    1    4    4    0    0 -2.08039499837E+01  1.72436703236E+01  3.24236628114E+01  7.33583152155E+01  6.00000000000E+01  0.0000E+00  9.0
</event>
<event>
10    1   3.4312288E-02   5.0000000E+02  -1.0000000E+00   9.3490000E-02
       11   -1    0    0    0    0  0.00000000000E+00  0.00000000000E+00  2.49950591870E+02  2.49950591870E+02  0.00000000000E+00  0.0000E+00  9.0
      -11   -1    0    0    0    0  0.00000000000E+00  0.00000000000E+00 -2.49999994630E+02  2.49999994630E+02  0.00000000000E+00  0.0000E+00  9.0
  3000025    2    1    2    0    0  9.47295903585E+01 -1.52919864885E+02 -6.76365668392E+01  2.49914048054E+02  1.59762780006E+02  1.9060E-13  9.0
 -3000025    2    1    2    0    0 -9.47295903585E+01  1.52919864885E+02  6.75871640762E+01  2.50036538456E+02  1.59975202608E+02  4.1749E-13  9.0
       14    1    3    3    0    0  8.39042083265E+01 -8.81494500022E+01 -5.93366372630E+01  1.35392312309E+02  0.00000000000E+00  0.0000E+00  9.0
      -13    1    3    3    0    0 -4.10609923418E+00 -4.82512227971E+01  6.42729495058E+00  4.88504027129E+01  1.05700000000E-01  0.0000E+00  9.0
  3000022    1    3    3    0    0  1.49314812648E+01 -1.65191920841E+01 -1.47272245271E+01  6.56713330316E+01  6.00000000000E+01  0.0000E+00  9.0
       -4    1    4    4    0  500 -4.72414204378E+01  7.69954389618E+00  5.21004404858E+00  4.81698543508E+01  1.46817165330E+00  0.0000E+00  9.0
        3    1    4    4  500    0 -4.18454409207E+01  1.17150001050E+02  3.02249366656E+01  1.28018555172E+02  2.00000000000E-01  0.0000E+00  9.0
  3000022    1    4    4    0    0 -5.64272899917E+00  2.80703199386E+01  3.21521833619E+01  7.38481289333E+01  6.00000000000E+01  0.0000E+00  9.0
</event>
<event>
10    1   3.4312288E-02   4.9930000E+02  -1.0000000E+00   9.3510000E-02
       11   -1    0    0    0    0  0.00000000000E+00  0.00000000000E+00  2.49268234060E+02  2.49268234060E+02  0.00000000000E+00  0.0000E+00  9.0
      -11   -1    0    0    0    0  0.00000000000E+00  0.00000000000E+00 -2.50000000000E+02  2.50000000000E+02  0.00000000000E+00  0.0000E+00  9.0
  3000025    2    1    2    0    0  1.91439777647E+02 -1.08372108041E+01 -5.56743500431E+00  2.49797433873E+02  1.60003525065E+02  7.1124E-13  9.0
 -3000025    2    1    2    0    0 -1.91439777647E+02  1.08372108041E+01  4.83566906661E+00  2.49470800195E+02  1.59516967283E+02  1.1864E-12  9.0
        2    1    3    3  500    0  2.48979268320E+01 -1.37328517872E+01 -3.32709424680E+01  4.37658954032E+01  3.00000000000E-03  0.0000E+00  9.0
       -1    1    3    3    0  500  1.29682440678E+02 -1.55956501157E+01  2.61576509028E+01  1.33210294078E+02  5.00000000000E-03  0.0000E+00  9.0
  3000022    1    3    3    0    0  3.68594101368E+01  1.84912910988E+01  1.54585656127E+00  7.28212443909E+01  6.00000000000E+01  0.0000E+00  9.0
       -4    1    4    4    0  504 -7.59711621003E+01 -1.20919686495E+01 -3.81813301123E+01  8.58941364346E+01  1.46817165330E+00  0.0000E+00  9.0
        3    1    4    4  504    0  7.01409846201E+00  1.99006334443E+01  9.23218778020E+00  2.30327175975E+01  2.00000000000E-01  0.0000E+00  9.0
  3000022    1    4    4    0    0 -1.22482714008E+02  3.02854600928E+00  3.37848113990E+01  1.40543946163E+02  6.00000000000E+01  0.0000E+00  9.0
</event>
<event>
10    1   3.4312288E-02   4.9700000E+02  -1.0000000E+00   9.3560000E-02
       11   -1    0    0    0    0  0.00000000000E+00  0.00000000000E+00  2.47094812740E+02  2.47094812740E+02  0.00000000000E+00  0.0000E+00  9.0
      -11   -1    0    0    0    0  0.00000000000E+00  0.00000000000E+00 -2.49962055110E+02  2.49962055110E+02  0.00000000000E+00  0.0000E+00  9.0
  3000025    2    1    2    0    0 -9.83357401788E+01 -1.10735499051E+02  1.17890287619E+02  2.47859713548E+02  1.60012653058E+02  1.1356E-12  9.0
 -3000025    2    1    2    0    0  9.83357401788E+01  1.10735499051E+02 -1.20757529979E+02  2.49197154307E+02  1.59951780614E+02  1.2143E-12  9.0
       14    1    3    3    0    0 -5.43219341941E+01  8.73660937723E+00  3.84344385031E+01  6.71148786861E+01  0.00000000000E+00  0.0000E+00  9.0
      -13    1    3    3    0    0  1.73033495403E+01 -3.04539183054E+01  3.45888202926E+01  4.92264634845E+01  1.05700000000E-01  0.0000E+00  9.0
  3000022    1    3    3    0    0 -6.13171555248E+01 -8.90181901225E+01  4.48670288229E+01  1.31518371377E+02  6.00000000000E+01  0.0000E+00  9.0
      -14    1    4    4    0    0  5.03606823285E+01  2.36713969478E+01 -5.65095810695E+01  7.93086761376E+01  0.00000000000E+00  0.0000E+00  9.0
       13    1    4    4    0    0  2.16728006534E+01  8.91295642716E+01 -3.76012503752E+01  9.91345283827E+01  1.05700000000E-01  0.0000E+00  9.0
  3000022    1    4    4    0    0  2.63022571960E+01 -2.06546216823E+00 -2.66466985341E+01  7.07539497862E+01  6.00000000000E+01  0.0000E+00  9.0
</event>
<event>
10    1   3.4312288E-02   4.8880000E+02  -1.0000000E+00   9.3740000E-02
       11   -1    0    0    0    0  0.00000000000E+00  0.00000000000E+00  2.38880742950E+02  2.38880742950E+02  0.00000000000E+00  0.0000E+00  9.0
      -11   -1    0    0    0    0  0.00000000000E+00  0.00000000000E+00 -2.50000000000E+02  2.50000000000E+02  0.00000000000E+00  0.0000E+00  9.0
  3000025    2    1    2    0    0  2.78884725768E+01 -1.82452410781E+02  2.86419669762E+00  2.44214122804E+02  1.59892729827E+02  4.4523E-13  9.0
 -3000025    2    1    2    0    0 -2.78884725768E+01  1.82452410781E+02 -1.39834537495E+01  2.44666620137E+02  1.59998652894E+02  2.2670E-13  9.0
        4    1    3    3  500    0 -8.12589329052E+00 -8.05209514469E+01 -4.51248184527E+01  9.26717785093E+01  1.46817165330E+00  0.0000E+00  9.0
       -3    1    3    3    0  500  2.18696095650E-01 -6.00074084421E+01  3.36863368114E+01  6.88167580150E+01  2.00000000000E-01  0.0000E+00  9.0
  3000022    1    3    3    0    0  3.57956697711E+01 -4.19240508921E+01  1.43026783389E+01  8.27255862792E+01  6.00000000000E+01  0.0000E+00  9.0
      -14    1    4    4    0    0  2.81520846598E+01  3.30075366044E+01  2.85632686926E+01  5.19412905288E+01  0.00000000000E+00  0.0000E+00  9.0
       13    1    4    4    0    0 -1.50411812455E+01  2.56849613752E+01 -3.91329218396E+01  4.91665650447E+01  1.05700000000E-01  0.0000E+00  9.0
  3000022    1    4    4    0    0 -4.09993759913E+01  1.23759912802E+02 -3.41380060204E+00  1.43558764563E+02  6.00000000000E+01  0.0000E+00  9.0
</event>
<event>
10    1   3.4312288E-02   4.6460000E+02  -1.0000000E+00   9.4310000E-02
       11   -1    0    0    0    0  0.00000000000E+00  0.00000000000E+00  2.49999890740E+02  2.49999890740E+02  0.00000000000E+00  0.0000E+00  9.0
      -11   -1    0    0    0    0  0.00000000000E+00  0.00000000000E+00 -2.15869182060E+02  2.15869182060E+02  0.00000000000E+00  0.0000E+00  9.0
  3000025    2    1    2    0    0 -8.47495324188E+00  1.46675719181E+02  1.00502408520E+02  2.38696898553E+02  1.59027934121E+02  2.7423E-13  9.0
 -3000025    2    1    2    0    0  8.47495324188E+00 -1.46675719181E+02 -6.63716998371E+01  2.27172174236E+02  1.60051250473E+02  9.6340E-13  9.0
        2    1    3    3  500    0  3.66758748698E+01  9.84963310130E+01  4.07530643363E+01  1.12727367051E+02  3.00000000000E-03  0.0000E+00  9.0
       -1    1    3    3    0  500 -3.60899317850E+01  3.14895713970E+01  2.80058796993E+01  5.54833813474E+01  5.00000000000E-03  0.0000E+00  9.0
  3000022    1    3    3    0    0 -9.06089632682E+00  1.66898167707E+01  3.17434644844E+01  7.04861501542E+01  6.00000000000E+01  0.0000E+00  9.0
       -4    1    4    4    0  504 -1.65435462822E+00  1.73390941307E+00 -3.29744207390E+01  3.30939765239E+01  1.46817165330E+00  0.0000E+00  9.0
        3    1    4    4  504    0  2.63494172349E+01 -6.10775569085E+01  2.61297590493E+01  7.14672236379E+01  2.00000000000E-01  0.0000E+00  9.0
  3000022    1    4    4    0    0 -1.62201093642E+01 -8.73320716869E+01 -5.95270381475E+01  1.22610974075E+02  6.00000000000E+01  0.0000E+00  9.0
</event>
<event>
10    1   3.4312288E-02   4.9920000E+02  -1.0000000E+00   9.3510000E-02
       11   -1    0    0    0    0  0.00000000000E+00  0.00000000000E+00  2.49186959740E+02  2.49186959740E+02  0.00000000000E+00  0.0000E+00  9.0
      -11   -1    0    0    0    0  0.00000000000E+00  0.00000000000E+00 -2.49981503730E+02  2.49981503730E+02  0.00000000000E+00  0.0000E+00  9.0
  3000025    2    1    2    0    0  1.60319353731E+02  4.41224734692E+01 -9.54790442425E+01  2.49706859527E+02  1.59963058109E+02  9.4820E-13  9.0
 -3000025    2    1    2    0    0 -1.60319353731E+02 -4.41224734692E+01  9.46845002545E+01  2.49461603944E+02  1.60052645738E+02  8.2576E-13  9.0
       14    1    3    3    0    0  3.14762111768E+01 -6.27848531213E+00  1.90017688170E+01  3.72993091897E+01  0.00000000000E+00  0.0000E+00  9.0
      -13    1    3    3    0    0  6.05449768843E+01  6.25248100448E+01 -6.03272870048E+01  1.05898247516E+02  1.05700000000E-01  0.0000E+00  9.0
  3000022    1    3    3    0    0  6.82981656700E+01 -1.21238512635E+01 -5.41535260547E+01  1.06509302821E+02  6.00000000000E+01  0.0000E+00  9.0
       -4    1    4    4    0  500 -3.37225949693E+01 -9.98090084434E+00 -1.97096667918E+01  4.03417685058E+01  1.46817165330E+00  0.0000E+00  9.0
        3    1    4    4  500    0 -3.18074946320E+01  2.48683589356E+01  5.73056697871E+01  7.01008686157E+01  2.00000000000E-01  0.0000E+00  9.0
  3000022    1    4    4    0    0 -9.47892641298E+01 -5.90099315599E+01  5.70884972591E+01  1.39018966822E+02  6.00000000000E+01  0.0000E+00  9.0
</event>
<event>
10    1   3.4312288E-02   4.6290000E+02  -1.0000000E+00   9.4350000E-02
       11   -1    0    0    0    0  0.00000000000E+00  0.00000000000E+00  2.49999999580E+02  2.49999999580E+02  0.00000000000E+00  0.0000E+00  9.0
      -11   -1    0    0    0    0  0.00000000000E+00  0.00000000000E+00 -2.14239779960E+02  2.14239779960E+02  0.00000000000E+00  0.0000E+00  9.0
  3000025    2    1    2    0    0 -2.05031636516E+01  1.62816664987E+02 -1.42668708533E+01  2.29616054391E+02  1.59969818132E+02  1.7841E-13  9.0
 -3000025    2    1    2    0    0  2.05031636516E+01 -1.62816664987E+02  5.00270904683E+01  2.34623725143E+02  1.60049793821E+02  2.2291E-12  9.0
        4    1    3    3  500    0 -2.07685927124E+01  7.93344798582E+01 -5.24355169289E+01  9.73495408373E+01  1.46817165330E+00  0.0000E+00  9.0
       -3    1    3    3    0  500  2.70554992988E+01  1.87827448498E+01  1.91859002843E+01  3.81173230451E+01  2.00000000000E-01  0.0000E+00  9.0
  3000022    1    3    3    0    0 -2.67900702380E+01  6.46994402789E+01  1.89827457913E+01  9.41491905092E+01  6.00000000000E+01  0.0000E+00  9.0
       -2    1    4    4    0  504 -5.55880290438E+00 -3.98461920866E+01  5.04503459512E+01  6.45279530833E+01  3.00000000000E-03  0.0000E+00  9.0
        1    1    4    4  504    0  5.27147379734E-01  7.28152809918E-01 -2.76263049798E+01  2.76409269510E+01  5.00000000000E-03  0.0000E+00  9.0
  3000022    1    4    4    0    0  2.55348191764E+01 -1.23698625711E+02  2.72030494974E+01  1.42454845109E+02  6.00000000000E+01  0.0000E+00  9.0
</event>
<event>
10    1   3.4312288E-02   4.0350000E+02  -1.0000000E+00   9.5930000E-02
       11   -1    0    0    0    0  0.00000000000E+00  0.00000000000E+00  2.39753343940E+02  2.39753343940E+02  0.00000000000E+00  0.0000E+00  9.0
      -11   -1    0    0    0    0  0.00000000000E+00  0.00000000000E+00 -1.69778523940E+02  1.69778523940E+02  0.00000000000E+00  0.0000E+00  9.0
  3000025    2    1    2    0    0  5.68240180065E+01 -1.00852630945E+02  7.69246293207E+01  2.11917516972E+02  1.59973164039E+02  1.1850E-12  9.0
 -3000025    2    1    2    0    0 -5.68240180065E+01  1.00852630945E+02 -6.94980932102E+00  1.97614350912E+02  1.60009092385E+02  6.8643E-14  9.0
        4    1    3    3  500    0  2.31500870285E+01  1.10700798185E+01  4.51767662039E+01  5.19766190634E+01  1.46817165330E+00  0.0000E+00  9.0
       -3    1    3    3    0  500  2.13024529698E+01 -7.66915272841E+01  3.94802783443E+01  8.88488448875E+01  2.00000000000E-01  0.0000E+00  9.0
  3000022    1    3    3    0    0  1.23714780081E+01 -3.52311834793E+01 -7.73241522862E+00  7.10920530209E+01  6.00000000000E+01  0.0000E+00  9.0
       -2    1    4    4    0  504  3.15519986437E+01  3.91321605885E+01 -2.49526036320E+01  5.61202908738E+01  3.00000000000E-03  0.0000E+00  9.0
        1    1    4    4  504    0 -2.34927254842E+01  4.86097009594E+00  2.68873104034E+01  3.60342152222E+01  5.00000000000E-03  0.0000E+00  9.0
  3000022    1    4    4    0    0 -6.48832911671E+01  5.68595002613E+01 -8.88451609231E+00  1.05459844817E+02  6.00000000000E+01  0.0000E+00  9.0
</event>
<event>
10    1   3.4312288E-02   5.0000000E+02  -1.0000000E+00   9.3490000E-02
       11   -1    0    0    0    0  0.00000000000E+00  0.00000000000E+00  2.49999998360E+02  2.49999998360E+02  0.00000000000E+00  0.0000E+00  9.0
      -11   -1    0    0    0    0  0.00000000000E+00  0.00000000000E+00 -2.49999999990E+02  2.49999999990E+02  0.00000000000E+00  0.0000E+00  9.0
  3000025    2    1    2    0    0  1.45340375860E+01  8.48364080156E+01  1.71898176531E+02  2.50142615943E+02  1.60043402997E+02  7.8259E-14  9.0
 -3000025    2    1    2    0    0 -1.45340375860E+01 -8.48364080156E+01 -1.71898178161E+02  2.49857382410E+02  1.59597222772E+02  3.0243E-13  9.0
        2    1    3    3  500    0  3.13221072230E+01  3.57509687692E+01  4.10621391990E+01  6.28116665391E+01  3.00000000000E-03  0.0000E+00  9.0
       -1    1    3    3    0  500 -3.54841751300E+01  1.07855475179E+01 -1.47522436647E-01  3.70874171086E+01  5.00000000000E-03  0.0000E+00  9.0
  3000022    1    3    3    0    0  1.86961054940E+01  3.82998917283E+01  1.30983559769E+02  1.50243532296E+02  6.00000000000E+01  0.0000E+00  9.0
       -2    1    4    4    0  504  3.26997490351E+01 -4.44452159353E+01 -2.67201055669E+01  6.13075432308E+01  3.00000000000E-03  0.0000E+00  9.0
        1    1    4    4  504    0 -1.55867194853E+01  2.23403542511E+01 -2.51185881290E+01  3.70537548296E+01  5.00000000000E-03  0.0000E+00  9.0
  3000022    1    4    4    0    0 -3.16470671359E+01 -6.27315463315E+01 -1.20059484465E+02  1.51496084350E+02  6.00000000000E+01  0.0000E+00  9.0
</event>
<event>
10    1   3.4312288E-02   4.8600000E+02  -1.0000000E+00   9.3800000E-02
       11   -1    0    0    0    0  0.00000000000E+00  0.00000000000E+00  2.49891321830E+02  2.49891321830E+02  0.00000000000E+00  0.0000E+00  9.0
      -11   -1    0    0    0    0  0.00000000000E+00  0.00000000000E+00 -2.36336849260E+02  2.36336849260E+02  0.00000000000E+00  0.0000E+00  9.0
  3000025    2    1    2    0    0 -1.72569647966E+02  9.53049184400E+00 -5.27290475828E+01  2.41552440288E+02  1.60300078841E+02  8.5254E-13  9.0
 -3000025    2    1    2    0    0  1.72569647966E+02 -9.53049184400E+00  6.62835201498E+01  2.44675730798E+02  1.60004982811E+02  3.1094E-13  9.0
        2    1    3    3  500    0 -5.78301253700E+01  2.69302566975E+01  2.87155509475E+01  6.99581660803E+01  3.00000000000E-03  0.0000E+00  9.0
       -1    1    3    3    0  500 -4.42973706763E+01 -3.47882510422E+01 -2.34255616912E+01  6.10019378787E+01  5.00000000000E-03  0.0000E+00  9.0
  3000022    1    3    3    0    0 -7.04421519195E+01  1.73884861886E+01 -5.80190368392E+01  1.10592336329E+02  6.00000000000E+01  0.0000E+00  9.0
       -2    1    4    4    0  504  4.36427514415E+01  2.04379705346E+01  3.01899101611E+01  5.68667836043E+01  3.00000000000E-03  0.0000E+00  9.0
        1    1    4    4  504    0  2.44688344874E+00 -2.09052076231E+01 -2.67959472789E+01  3.40740041667E+01  5.00000000000E-03  0.0000E+00  9.0
  3000022    1    4    4    0    0  1.26480013075E+02 -9.06325475515E+00  6.28895572676E+01  1.53734943027E+02  6.00000000000E+01  0.0000E+00  9.0
</event>
<event>
10    1   3.4312288E-02   4.3780000E+02  -1.0000000E+00   9.4980000E-02
       11   -1    0    0    0    0  0.00000000000E+00  0.00000000000E+00  2.49605196480E+02  2.49605196480E+02  0.00000000000E+00  0.0000E+00  9.0
      -11   -1    0    0    0    0  0.00000000000E+00  0.00000000000E+00 -1.91994016950E+02  1.91994016950E+02  0.00000000000E+00  0.0000E+00  9.0
  3000025    2    1    2    0    0  1.09843673882E+02 -1.33811761805E+01  1.29657855180E+02  2.34114080253E+02  1.60479140685E+02  1.8744E-12  9.0
 -3000025    2    1    2    0    0 -1.09843673882E+02  1.33811761805E+01 -7.20466756480E+01  2.07485133177E+02  1.60045832341E+02  5.8815E-13  9.0
        2    1    3    3  500    0 -2.18564844766E+01 -1.52895913116E+01  6.14479447339E+01  6.69875170250E+01  3.00000000000E-03  0.0000E+00  9.0
       -1    1    3    3    0  500  4.73663007895E+01  4.27396893112E+00  3.25470758339E+01  5.76293799311E+01  5.00000000000E-03  0.0000E+00  9.0
  3000022    1    3    3    0    0  8.43338575705E+01 -2.36555380018E+00  3.56628346121E+01  1.09497183297E+02  6.00000000000E+01  0.0000E+00  9.0
       -2    1    4    4    0  504 -2.33960623560E+01 -2.50939050170E+01  3.34004614715E+00  3.44707951755E+01  3.00000000000E-03  0.0000E+00  9.0
        1    1    4    4  504    0  2.05421408507E+00  4.76080520524E+01 -1.54292330867E+01  5.00879993050E+01  5.00000000000E-03  0.0000E+00  9.0
  3000022    1    4    4    0    0 -8.85018256110E+01 -9.13297085495E+00 -5.99574887090E+01  1.22926338697E+02  6.00000000000E+01  0.0000E+00  9.0
</event>
<event>
10    1   3.4312288E-02   4.3880000E+02  -1.0000000E+00   9.4960000E-02
       11   -1    0    0    0    0  0.00000000000E+00  0.00000000000E+00  1.92580743020E+02  1.92580743020E+02  0.00000000000E+00  0.0000E+00  9.0
      -11   -1    0    0    0    0  0.00000000000E+00  0.00000000000E+00 -2.49999999990E+02  2.49999999990E+02  0.00000000000E+00  0.0000E+00  9.0
  3000025    2    1    2    0    0 -6.78814338847E+00 -1.49541163507E+02 -1.31904850956E+01  2.19072706173E+02  1.59405844369E+02  1.2475E-12  9.0
 -3000025    2    1    2    0    0  6.78814338847E+00  1.49541163507E+02 -4.42287718794E+01  2.23508036834E+02  1.59971934394E+02  1.9452E-12  9.0
        4    1    3    3  500    0  8.53609740660E-01 -4.22576822021E+01  5.26282459254E+01  6.75153919627E+01  1.46817165330E+00  0.0000E+00  9.0
       -3    1    3    3    0  500 -2.04008592357E+00 -5.91570941940E+01 -2.44642910720E+01  6.40489288100E+01  2.00000000000E-01  0.0000E+00  9.0
  3000022    1    3    3    0    0 -5.60166720549E+00 -4.81263871112E+01 -4.13544399490E+01  8.75083854002E+01  6.00000000000E+01  0.0000E+00  9.0
      -14    1    4    4    0    0 -1.72950128490E+01  3.42819457310E+00  3.30577247950E+01  3.74657597828E+01  0.00000000000E+00  0.0000E+00  9.0
       13    1    4    4    0    0  8.08932419222E+00  3.48951709505E+01 -3.91790769921E+01  5.30859808989E+01  1.05700000000E-01  0.0000E+00  9.0
  3000022    1    4    4    0    0  1.59938320452E+01  1.11217797983E+02 -3.81074196823E+01  1.32956296152E+02  6.00000000000E+01  0.0000E+00  9.0
</event>
<event>
10    1   3.4312288E-02   4.9910000E+02  -1.0000000E+00   9.3510000E-02
       11   -1    0    0    0    0  0.00000000000E+00  0.00000000000E+00  2.49195968300E+02  2.49195968300E+02  0.00000000000E+00  0.0000E+00  9.0
      -11   -1    0    0    0    0  0.00000000000E+00  0.00000000000E+00 -2.49902982270E+02  2.49902982270E+02  0.00000000000E+00  0.0000E+00  9.0
  3000025    2    1    2    0    0  1.60019074043E+02  5.82287504826E+01 -8.38659437996E+01  2.51062421226E+02  1.64323313569E+02  3.0157E-12  9.0
 -3000025    2    1    2    0    0 -1.60019074043E+02 -5.82287504826E+01  8.31589298346E+01  2.48036529341E+02  1.60031312048E+02  7.2738E-13  9.0
        4    1    3    3  500    0  2.53747248027E+01  4.66471292873E-02  3.31949298033E+01  4.18083451887E+01  1.46817165330E+00  0.0000E+00  9.0
       -3    1    3    3    0  500  7.69215593478E+01  1.15040167876E+01 -4.73355668272E+01  9.10492426196E+01  2.00000000000E-01  0.0000E+00  9.0
  3000022    1    3    3    0    0  5.77227898927E+01  4.66780865665E+01 -6.97253067757E+01  1.18204833418E+02  6.00000000000E+01  0.0000E+00  9.0
       -4    1    4    4    0  504  4.43264854365E+00 -2.87824647281E+01 -1.32986134146E+00  2.91890854281E+01  1.46817165330E+00  0.0000E+00  9.0
        3    1    4    4  504    0 -9.92750067337E+01 -3.57114367896E+01  7.51838552139E+01  1.29551093258E+02  2.00000000000E-01  0.0000E+00  9.0
  3000022    1    4    4    0    0 -6.51767158527E+01  6.26515103618E+00  9.30493596205E+00  8.92963506539E+01  6.00000000000E+01  0.0000E+00  9.0
</event>
<event>
10    1   3.4312288E-02   4.9370000E+02  -1.0000000E+00   9.3630000E-02
       11   -1    0    0    0    0  0.00000000000E+00  0.00000000000E+00  2.43702570340E+02  2.43702570340E+02  0.00000000000E+00  0.0000E+00  9.0
      -11   -1    0    0    0    0  0.00000000000E+00  0.00000000000E+00 -2.50000000000E+02  2.50000000000E+02  0.00000000000E+00  0.0000E+00  9.0
  3000025    2    1    2    0    0  7.88825408710E+01 -1.69650533845E+02 -1.84138611743E+01  2.47183571726E+02  1.60489529128E+02  2.2966E-14  9.0
 -3000025    2    1    2    0    0 -7.88825408710E+01  1.69650533845E+02  1.21164315193E+01  2.46518998620E+02  1.60065767358E+02  2.8460E-12  9.0
        2    1    3    3  500    0  4.17439628771E+01 -6.92339985631E+01  2.49688755286E+01  8.46129407826E+01  3.00000000000E-03  0.0000E+00  9.0
       -1    1    3    3    0  500  2.78976829040E+01 -8.20968597864E+01 -4.77916583437E+01  9.90061499627E+01  5.00000000000E-03  0.0000E+00  9.0
  3000022    1    3    3    0    0  9.24089508991E+00 -1.83196754955E+01  4.40892164070E+00  6.35644809808E+01  6.00000000000E+01  0.0000E+00  9.0
       -2    1    4    4    0  504 -3.93671258695E+01  2.31509588564E+01  2.11028536333E+01  5.03097200913E+01  3.00000000000E-03  0.0000E+00  9.0
        1    1    4    4  504    0 -3.03921893382E+01  1.24494414978E+02 -2.28756123486E+01  1.30176181381E+02  5.00000000000E-03  0.0000E+00  9.0
  3000022    1    4    4    0    0 -9.12322566335E+00  2.20051600103E+01  1.38891902353E+01  6.60330971481E+01  6.00000000000E+01  0.0000E+00  9.0
</event>
<event>
10    1   3.4312288E-02   4.9670000E+02  -1.0000000E+00   9.3560000E-02
       11   -1    0    0    0    0  0.00000000000E+00  0.00000000000E+00  2.50000000000E+02  2.50000000000E+02  0.00000000000E+00  0.0000E+00  9.0
      -11   -1    0    0    0    0  0.00000000000E+00  0.00000000000E+00 -2.46678292490E+02  2.46678292490E+02  0.00000000000E+00  0.0000E+00  9.0
  3000025    2    1    2    0    0  8.09956906714E+01  1.15803726146E+02 -1.27088166204E+02  2.46234944013E+02  1.56554912946E+02  1.4103E-12  9.0
 -3000025    2    1    2    0    0 -8.09956906714E+01 -1.15803726146E+02  1.30409873714E+02  2.50443348478E+02  1.60450399620E+02  8.4179E-13  9.0
        4    1    3    3  500    0 -6.88698558174E+00  4.90273436443E+01 -3.07329678301E+01  5.82904952361E+01  1.46817165330E+00  0.0000E+00  9.0
       -3    1    3    3    0  500  7.40424700468E+01  4.70823479164E+01 -8.52708979382E+01  1.22352772307E+02  2.00000000000E-01  0.0000E+00  9.0
  3000022    1    3    3    0    0  1.38402062064E+01  1.96940345850E+01 -1.10843004365E+01  6.55916764707E+01  6.00000000000E+01  0.0000E+00  9.0
      -14    1    4    4    0    0 -3.58175823090E+01 -3.19543086486E+01 -1.06183829607E+01  4.91602186771E+01  0.00000000000E+00  0.0000E+00  9.0
       13    1    4    4    0    0  1.41539226992E+00  8.22973485168E+00  5.12318124065E+01  5.19080113851E+01  1.05700000000E-01  0.0000E+00  9.0
  3000022    1    4    4    0    0 -4.65935006318E+01 -9.20791523489E+01  8.97964442684E+01  1.49375118416E+02  6.00000000000E+01  0.0000E+00  9.0
</event>
<event>
10    1   3.4312288E-02   4.9950000E+02  -1.0000000E+00   9.3500000E-02
       11   -1    0    0    0    0  0.00000000000E+00  0.00000000000E+00  2.49591155390E+02  2.49591155390E+02  0.00000000000E+00  0.0000E+00  9.0
      -11   -1    0    0    0    0  0.00000000000E+00  0.00000000000E+00 -2.49885364680E+02  2.49885364680E+02  0.00000000000E+00  0.0000E+00  9.0
  3000025    2    1    2    0    0 -1.72073560404E+02 -2.51476977316E+01  8.04790316147E+01  2.49722854081E+02  1.60134045192E+02  9.0048E-13  9.0
 -3000025    2    1    2    0    0  1.72073560404E+02  2.51476977316E+01 -8.07732408997E+01  2.49753665986E+02  1.60033934954E+02  2.5010E-12  9.0
        2    1    3    3  500    0 -1.98806120984E+00 -1.39458330189E+01  3.94417412495E+01  4.18818529648E+01  3.00000000000E-03  0.0000E+00  9.0
       -1    1    3    3    0  500 -6.20177894151E+01 -2.59542923519E+01 -1.86766901362E+01  6.97757140764E+01  5.00000000000E-03  0.0000E+00  9.0
  3000022    1    3    3    0    0 -1.08067709779E+02  1.47524276388E+01  5.97139805014E+01  1.38065287040E+02  6.00000000000E+01  0.0000E+00  9.0
       -2    1    4    4    0  504  7.70648007188E+01  3.03650754442E+01 -7.00234168046E+00  8.31267352575E+01  3.00000000000E-03  0.0000E+00  9.0
        1    1    4    4  504    0  5.20654983517E+01 -8.93524884277E-01 -7.66439959063E+01  9.26602214481E+01  5.00000000000E-03  0.0000E+00  9.0
  3000022    1    4    4    0    0  4.29432613339E+01 -4.32385282889E+00  2.87309668701E+00  7.39667092809E+01  6.00000000000E+01  0.0000E+00  9.0
</event>
<event>
10    1   3.4312288E-02   3.5370000E+02  -1.0000000E+00   9.7490000E-02
       11   -1    0    0    0    0  0.00000000000E+00  0.00000000000E+00  2.47998657610E+02  2.47998657610E+02  0.00000000000E+00  0.0000E+00  9.0
      -11   -1    0    0    0    0  0.00000000000E+00  0.00000000000E+00 -1.26094736640E+02  1.26094736640E+02  0.00000000000E+00  0.0000E+00  9.0
  3000025    2    1    2    0    0 -9.07306178522E+00  7.14347073439E+01  3.80087931262E+01  1.79533831615E+02  1.60007782548E+02  1.9643E-12  9.0
 -3000025    2    1    2    0    0  9.07306178522E+00 -7.14347073439E+01  8.38951278488E+01  1.94559562633E+02  1.60093076276E+02  7.5926E-13  9.0
       14    1    3    3    0    0 -4.51144767332E+01 -5.64862301299E-01  2.30961528078E+01  5.06859680272E+01  0.00000000000E+00  0.0000E+00  9.0
      -13    1    3    3    0    0  2.46705775563E+01  4.00830759378E+01  3.31506253395E+01  5.75696578632E+01  1.05700000000E-01  0.0000E+00  9.0
  3000022    1    3    3    0    0  1.13708373917E+01  3.19164937073E+01 -1.82379850221E+01  7.12782057240E+01  6.00000000000E+01  0.0000E+00  9.0
       -4    1    4    4    0  500 -1.12111699692E+01 -4.36023905799E+01  5.68066025676E+00  4.54013680996E+01  1.46817165330E+00  0.0000E+00  9.0
        3    1    4    4  500    0  1.11221968478E+01  3.58420352532E+01  1.32378564627E+01  3.97949192428E+01  2.00000000000E-01  0.0000E+00  9.0
  3000022    1    4    4    0    0  9.16203490668E+00 -6.36743520170E+01  6.49766111285E+01  1.09363275290E+02  6.00000000000E+01  0.0000E+00  9.0
</event>
<event>
10    1   3.4312288E-02   4.8820000E+02  -1.0000000E+00   9.3760000E-02
       11   -1    0    0    0    0  0.00000000000E+00  0.00000000000E+00  2.42833869220E+02  2.42833869220E+02  0.00000000000E+00  0.0000E+00  9.0
      -11   -1    0    0    0    0  0.00000000000E+00  0.00000000000E+00 -2.45384893860E+02  2.45384893860E+02  0.00000000000E+00  0.0000E+00  9.0
  3000025    2    1    2    0    0 -1.29487760002E+02 -1.29646314738E+02  1.69637382679E+01  2.44169916914E+02  1.60486550821E+02  5.6767E-13  9.0
 -3000025    2    1    2    0    0  1.29487760002E+02  1.29646314738E+02 -1.95147629089E+01  2.44048846171E+02  1.60011769662E+02  1.9840E-12  9.0
        2    1    3    3  500    0 -6.12967850356E+01  3.26243476176E+00  4.23092880986E+00  6.15291809134E+01  3.00000000000E-03  0.0000E+00  9.0
       -1    1    3    3    0  500 -1.62263735821E+01 -5.47548394540E+01  3.77702459475E+01  6.84688187951E+01  5.00000000000E-03  0.0000E+00  9.0
  3000022    1    3    3    0    0 -5.19646013842E+01 -7.81539100459E+01 -2.50374364897E+01  1.14171917206E+02  6.00000000000E+01  0.0000E+00  9.0
       -2    1    4    4    0  504  8.76397837454E+01  6.00372732442E+01 -6.49490069059E+00  1.06430210079E+02  3.00000000000E-03  0.0000E+00  9.0
        1    1    4    4  504    0  5.47744449290E+00  1.69828251517E+01 -4.16877556350E+01  4.53463090360E+01  5.00000000000E-03  0.0000E+00  9.0
  3000022    1    4    4    0    0  3.63705317623E+01  5.26262163425E+01  2.86678934163E+01  9.22723270549E+01  6.00000000000E+01  0.0000E+00  9.0
</event>
<event>
10    1   3.4312288E-02   4.8380000E+02  -1.0000000E+00   9.3860000E-02
       11   -1    0    0    0    0  0.00000000000E+00  0.00000000000E+00  2.34091000250E+02  2.34091000250E+02  0.00000000000E+00  0.0000E+00  9.0
      -11   -1    0    0    0    0  0.00000000000E+00  0.00000000000E+00 -2.49999992760E+02  2.49999992760E+02  0.00000000000E+00  0.0000E+00  9.0
  3000025    2    1    2    0    0  3.54506043673E+01 -1.59323685442E+02  7.14960501656E+01  2.39492894729E+02  1.60013684864E+02  4.1627E-12  9.0
 -3000025    2    1    2    0    0 -3.54506043673E+01  1.59323685442E+02 -8.74050426776E+01  2.44598098285E+02  1.59836810862E+02  2.1099E-12  9.0
       14    1    3    3    0    0  1.37210492055E+01  1.10962518127E+01 -9.38562355187E+00  1.99870939620E+01  0.00000000000E+00  0.0000E+00  9.0
      -13    1    3    3    0    0  4.33742548481E+01 -1.00246504686E+02  4.38890487339E+01  1.17715536173E+02  1.05700000000E-01  0.0000E+00  9.0
  3000022    1    3    3    0    0 -2.16446996855E+01 -7.01734325691E+01  3.69926249827E+01  1.01790264594E+02  6.00000000000E+01  0.0000E+00  9.0
       -4    1    4    4    0  500  1.54912110358E+01 -2.77887666703E+00  6.27542206648E+00  1.70069463750E+01  1.46817165330E+00  0.0000E+00  9.0
        3    1    4    4  500    0 -2.19761764682E+01  1.24872850020E+02 -3.56363219347E+01  1.31704853537E+02  2.00000000000E-01  0.0000E+00  9.0
  3000022    1    4    4    0    0 -2.89656389347E+01  3.72297120894E+01 -5.80441428103E+01  9.58862983733E+01  6.00000000000E+01  0.0000E+00  9.0
</event>
<event>
10    1   3.4312288E-02   5.0000000E+02  -1.0000000E+00   9.3490000E-02
       11   -1    0    0    0    0  0.00000000000E+00  0.00000000000E+00  2.49999777070E+02  2.49999777070E+02  0.00000000000E+00  0.0000E+00  9.0
      -11   -1    0    0    0    0  0.00000000000E+00  0.00000000000E+00 -2.49968610120E+02  2.49968610120E+02  0.00000000000E+00  0.0000E+00  9.0
  3000025    2    1    2    0    0 -1.33952621470E+02  1.79409552400E+01  1.36523431885E+02  2.49992316465E+02  1.59976023716E+02  3.8095E-12  9.0
 -3000025    2    1    2    0    0  1.33952621470E+02 -1.79409552400E+01 -1.36492264945E+02  2.49976070722E+02  1.59977232349E+02  2.7067E-12  9.0
        4    1    3    3  500    0 -3.84256529555E+01 -4.83535707070E+01  5.37613161537E+01  8.18964788483E+01  1.46817165330E+00  0.0000E+00  9.0
       -3    1    3    3    0  500 -6.50574665791E+00  2.88836627689E+01  3.19878217880E+01  4.35872855001E+01  2.00000000000E-01  0.0000E+00  9.0
  3000022    1    3    3    0    0 -8.90212218580E+01  3.74108631782E+01  5.07742939439E+01  1.24508552117E+02  6.00000000000E+01  0.0000E+00  9.0
       -2    1    4    4    0  504  5.48691538883E+01  3.71408721398E+01 -8.18593232375E+01  1.05313898616E+02  3.00000000000E-03  0.0000E+00  9.0
        1    1    4    4  504    0  5.14721079054E+01 -1.84820063633E+01 -6.40423666569E+00  5.50633882331E+01  5.00000000000E-03  0.0000E+00  9.0
  3000022    1    4    4    0    0  2.76113596776E+01 -3.65998210165E+01 -4.82287050420E+01  8.95987838741E+01  6.00000000000E+01  0.0000E+00  9.0
</event>
<event>
10    1   3.4312288E-02   4.9840000E+02  -1.0000000E+00   9.3530000E-02
       11   -1    0    0    0    0  0.00000000000E+00  0.00000000000E+00  2.48440447570E+02  2.48440447570E+02  0.00000000000E+00  0.0000E+00  9.0
      -11   -1    0    0    0    0  0.00000000000E+00  0.00000000000E+00 -2.50000000000E+02  2.50000000000E+02  0.00000000000E+00  0.0000E+00  9.0
  3000025    2    1    2    0    0  1.40501374596E+02 -9.80671545443E+01 -8.52460701247E+01  2.49399279458E+02  1.59922809689E+02  1.5749E-12  9.0
 -3000025    2    1    2    0    0 -1.40501374596E+02  9.80671545443E+01  8.36865176927E+01  2.49041168111E+02  1.60188223995E+02  5.0417E-13  9.0
        4    1    3    3  500    0  2.64306078670E+01  1.01446370835E+01 -3.47434174102E+01  4.48414013510E+01  1.46817165330E+00  0.0000E+00  9.0
       -3    1    3    3    0  500  4.10747226520E+01 -4.54429561240E+01  2.72367106145E+01  6.70378513030E+01  2.00000000000E-01  0.0000E+00  9.0
  3000022    1    3    3    0    0  7.29960440767E+01 -6.27688355027E+01 -7.77393633289E+01  1.37520026803E+02  6.00000000000E+01  0.0000E+00  9.0
       -2    1    4    4    0  504 -6.11805854200E+01  1.00161198982E+02  2.32172036664E+01  1.19642669516E+02  3.00000000000E-03  0.0000E+00  9.0
        1    1    4    4  504    0 -3.27187460083E-01 -1.21567386906E+01  1.63264583319E+01  2.03579619287E+01  5.00000000000E-03  0.0000E+00  9.0
  3000022    1    4    4    0    0 -7.89936017162E+01  1.00626942534E+01  4.41428556942E+01  1.09040536667E+02  6.00000000000E+01  0.0000E+00  9.0
</event>
<event>
10    1   3.4312288E-02   4.5780000E+02  -1.0000000E+00   9.4480000E-02
       11   -1    0    0    0    0  0.00000000000E+00  0.00000000000E+00  2.09551227220E+02  2.09551227220E+02  0.00000000000E+00  0.0000E+00  9.0
      -11   -1    0    0    0    0  0.00000000000E+00  0.00000000000E+00 -2.49997482990E+02  2.49997482990E+02  0.00000000000E+00  0.0000E+00  9.0
  3000025    2    1    2    0    0 -9.05256737588E+01  1.06917665208E+02  6.47260059207E+01  2.22238283248E+02  1.59919085651E+02  2.6349E-13  9.0
 -3000025    2    1    2    0    0  9.05256737588E+01 -1.06917665208E+02 -1.05172261689E+02  2.37310426965E+02  1.60089816586E+02  6.3907E-13  9.0
        4    1    3    3  500    0 -6.86404726605E+01  2.73290831058E+00  2.34370929628E+01  7.25977694522E+01  1.46817165330E+00  0.0000E+00  9.0
       -3    1    3    3    0  500 -1.42463715921E+01  5.79061963320E+01 -6.09662477271E+00  5.99441032196E+01  2.00000000000E-01  0.0000E+00  9.0
  3000022    1    3    3    0    0 -7.63882950605E+00  4.62785605651E+01  4.73855377299E+01  8.96964105756E+01  6.00000000000E+01  0.0000E+00  9.0
       -4    1    4    4    0  504  5.57600898254E+01 -8.81466538086E+01 -3.79767527546E+01  1.11010852950E+02  1.46817165330E+00  0.0000E+00  9.0
        3    1    4    4  504    0  3.47465277756E+01  7.83643171250E+00 -4.41699470177E+01  5.67428856685E+01  2.00000000000E-01  0.0000E+00  9.0
  3000022    1    4    4    0    0  1.90561578957E-02 -2.66074431122E+01 -2.30255619167E+01  6.95566883462E+01  6.00000000000E+01  0.0000E+00  9.0
</event>
<event>
10    1   3.4312288E-02   4.4820000E+02  -1.0000000E+00   9.4720000E-02
       11   -1    0    0    0    0  0.00000000000E+00  0.00000000000E+00  2.01328990110E+02  2.01328990110E+02  0.00000000000E+00  0.0000E+00  9.0
      -11   -1    0    0    0    0  0.00000000000E+00  0.00000000000E+00 -2.49468614930E+02  2.49468614930E+02  0.00000000000E+00  0.0000E+00  9.0
  3000025    2    1    2    0    0 -1.50480447075E+02 -3.16422391537E+01  2.86687874930E+00  2.21985784575E+02  1.60074586706E+02  2.4019E-12  9.0
 -3000025    2    1    2    0    0  1.50480447075E+02  3.16422391537E+01 -5.10065035739E+01  2.28811820469E+02  1.61578431509E+02  9.9730E-13  9.0
        4    1    3    3  500    0 -3.64880841923E+01 -4.64266751318E+01  1.94218120988E+01  6.21786037558E+01  1.46817165330E+00  0.0000E+00  9.0
       -3    1    3    3    0  500 -3.52627901146E+01  3.87972276887E+01  1.24779368564E+01  5.38927467400E+01  2.00000000000E-01  0.0000E+00  9.0
  3000022    1    3    3    0    0 -7.87295727682E+01 -2.40127917102E+01 -2.90328702059E+01  1.05914434079E+02  6.00000000000E+01  0.0000E+00  9.0
       -4    1    4    4    0  504  3.34481286282E+01 -2.00992954384E+01  6.94237564906E+00  3.96624645414E+01  1.46817165330E+00  0.0000E+00  9.0
        3    1    4    4  504    0  2.75096827452E+01 -6.34339967182E+00 -6.04282684176E+01  6.66981033320E+01  2.00000000000E-01  0.0000E+00  9.0
  3000022    1    4    4    0    0  8.95226357013E+01  5.80849342649E+01  2.47938919461E+00  1.22451252596E+02  6.00000000000E+01  0.0000E+00  9.0
</event>
<event>
10    1   3.4312288E-02   4.9600000E+02  -1.0000000E+00   9.3580000E-02
       11   -1    0    0    0    0  0.00000000000E+00  0.00000000000E+00  2.50000000000E+02  2.50000000000E+02  0.00000000000E+00  0.0000E+00  9.0
      -11   -1    0    0    0    0  0.00000000000E+00  0.00000000000E+00 -2.45975018470E+02  2.45975018470E+02  0.00000000000E+00  0.0000E+00  9.0
  3000025    2    1    2    0    0  1.42217495874E+02 -8.78325844682E+01 -8.73348161961E+01  2.47177786842E+02  1.59778312550E+02  3.7537E-12  9.0
 -3000025    2    1    2    0    0 -1.42217495874E+02  8.78325844682E+01  9.13597977231E+01  2.48797231633E+02  1.60040841041E+02  1.6300E-12  9.0
        4    1    3    3  500    0 -4.96646937553E+00 -2.26867667769E+01  1.43179391465E+01  2.73224104766E+01  1.46817165330E+00  0.0000E+00  9.0
       -3    1    3    3    0  500  9.21032563721E+01 -1.08655189594E+01 -2.65030713238E+01  9.64547672549E+01  2.00000000000E-01  0.0000E+00  9.0
  3000022    1    3    3    0    0  5.50807088770E+01 -5.42802987312E+01 -7.51496840191E+01  1.23400609111E+02  6.00000000000E+01  0.0000E+00  9.0
      -14    1    4    4    0    0 -1.10308596980E+02  1.13251192507E+01  2.32624669959E+01  1.13302194438E+02  0.00000000000E+00  0.0000E+00  9.0
       13    1    4    4    0    0  1.60056662467E+00  1.24634021595E+01  3.28321961282E+01  3.51548358267E+01  1.05700000000E-01  0.0000E+00  9.0
  3000022    1    4    4    0    0 -3.35094655188E+01  6.40440630587E+01  3.52651345993E+01  1.00340201369E+02  6.00000000000E+01  0.0000E+00  9.0
</event>
<event>
10    1   3.4312288E-02   4.9950000E+02  -1.0000000E+00   9.3500000E-02
       11   -1    0    0    0    0  0.00000000000E+00  0.00000000000E+00  2.49523826990E+02  2.49523826990E+02  0.00000000000E+00  0.0000E+00  9.0
      -11   -1    0    0    0    0  0.00000000000E+00  0.00000000000E+00 -2.49999999840E+02  2.49999999840E+02  0.00000000000E+00  0.0000E+00  9.0
  3000025    2    1    2    0    0 -1.82297387434E+02 -2.11462133581E+01  5.50938841330E+01  2.49791698458E+02  1.60253102140E+02  1.4652E-12  9.0
 -3000025    2    1    2    0    0  1.82297387434E+02  2.11462133581E+01 -5.55700569800E+01  2.49732128374E+02  1.59995640268E+02  1.3858E-12  9.0
       14    1    3    3    0    0 -7.90379990204E+01  3.61689799041E+00  3.76032739204E+01  8.76019032314E+01  0.00000000000E+00  0.0000E+00  9.0
      -13    1    3    3    0    0 -4.44440976247E+01 -5.11612915476E+01 -1.29742047309E+01  6.90007009194E+01  1.05700000000E-01  0.0000E+00  9.0
  3000022    1    3    3    0    0 -5.88152907884E+01  2.63981801989E+01  3.04648149429E+01  9.31890943075E+01  6.00000000000E+01  0.0000E+00  9.0
       -4    1    4    4    0  500  9.48084160088E+01 -2.58952675372E+00 -2.08461122591E+01  9.71187794365E+01  1.46817165330E+00  0.0000E+00  9.0
        3    1    4    4  500    0  3.56974890635E+00  5.03110787751E+00 -4.66830724061E+01  4.70893236627E+01  2.00000000000E-01  0.0000E+00  9.0
  3000022    1    4    4    0    0  8.39192225185E+01  1.87046322344E+01  1.19591276857E+01  1.05524025275E+02  6.00000000000E+01  0.0000E+00  9.0
</event>
<event>
10    1   3.4312288E-02   4.9950000E+02  -1.0000000E+00   9.3500000E-02
       11   -1    0    0    0    0  0.00000000000E+00  0.00000000000E+00  2.49936093240E+02  2.49936093240E+02  0.00000000000E+00  0.0000E+00  9.0
      -11   -1    0    0    0    0  0.00000000000E+00  0.00000000000E+00 -2.49586781590E+02  2.49586781590E+02  0.00000000000E+00  0.0000E+00  9.0
  3000025    2    1    2    0    0  1.17572542026E+02 -1.48591958997E+02 -2.87203106851E+01  2.49773128214E+02  1.60183914346E+02  1.4297E-13  9.0
 -3000025    2    1    2    0    0 -1.17572542026E+02  1.48591958997E+02  2.90696223301E+01  2.49749746623E+02  1.60084415478E+02  7.5130E-12  9.0
        2    1    3    3  500    0 -7.64400432191E+00 -4.78370988307E+00  2.95446681971E+01  3.08901620292E+01  3.00000000000E-03  0.0000E+00  9.0
       -1    1    3    3    0  500  6.35217327447E+01 -6.15892701911E+01 -5.38013569396E+00  8.86408180166E+01  5.00000000000E-03  0.0000E+00  9.0
  3000022    1    3    3    0    0  6.16948136022E+01 -8.22189789216E+01 -5.28848431879E+01  1.30242148168E+02  6.00000000000E+01  0.0000E+00  9.0
       -2    1    4    4    0  504  1.87060857151E+01  1.14847597378E+01  7.26055560159E+00  2.31199702781E+01  3.00000000000E-03  0.0000E+00  9.0
        1    1    4    4  504    0 -8.55538285819E+01  5.86641559626E+01 -2.40847258515E+01  1.06494200895E+02  5.00000000000E-03  0.0000E+00  9.0
  3000022    1    4    4    0    0 -5.07247991593E+01  7.84430432958E+01  4.58937925807E+01  1.20135575450E+02  6.00000000000E+01  0.0000E+00  9.0
</event>
<event>
10    1   3.4312288E-02   4.9990000E+02  -1.0000000E+00   9.3490000E-02
       11   -1    0    0    0    0  0.00000000000E+00  0.00000000000E+00  2.49911672550E+02  2.49911672550E+02  0.00000000000E+00  0.0000E+00  9.0
      -11   -1    0    0    0    0  0.00000000000E+00  0.00000000000E+00 -2.50000000000E+02  2.50000000000E+02  0.00000000000E+00  0.0000E+00  9.0
  3000025    2    1    2    0    0  9.16806045707E+01  9.47957062131E+01 -1.38557897589E+02  2.49578815328E+02  1.60311368609E+02  3.4924E-12  9.0
 -3000025    2    1    2    0    0 -9.16806045707E+01 -9.47957062131E+01  1.38469570139E+02  2.50332857228E+02  1.61558529277E+02  2.2430E-12  9.0
        2    1    3    3  500    0 -1.90480987545E+01  2.35680870889E+01 -1.54480734899E+01  3.40136410686E+01  3.00000000000E-03  0.0000E+00  9.0
       -1    1    3    3    0  500  6.87350454570E+01  1.62050599536E+01 -1.21123846354E+01  7.16506826808E+01  5.00000000000E-03  0.0000E+00  9.0
  3000022    1    3    3    0    0  4.19936578686E+01  5.50225591705E+01 -1.10997439463E+02  1.43914491578E+02  6.00000000000E+01  0.0000E+00  9.0
       -2    1    4    4    0  504 -5.01598339860E+01 -9.23046508326E+01  1.21576174010E+02  1.60676456293E+02  3.00000000000E-03  0.0000E+00  9.0
        1    1    4    4  504    0  1.08727051882E+00 -1.26613169572E+01  7.55117388855E+00  1.47821296290E+01  5.00000000000E-03  0.0000E+00  9.0
  3000022    1    4    4    0    0 -4.26080411036E+01  1.01702615768E+01  9.34222224102E+00  7.48742713062E+01  6.00000000000E+01  0.0000E+00  9.0
</event>
<event>
10    1   3.4312288E-02   4.9340000E+02  -1.0000000E+00   9.3640000E-02
       11   -1    0    0    0    0  0.00000000000E+00  0.00000000000E+00  2.50000000000E+02  2.50000000000E+02  0.00000000000E+00  0.0000E+00  9.0
      -11   -1    0    0    0    0  0.00000000000E+00  0.00000000000E+00 -2.43470647670E+02  2.43470647670E+02  0.00000000000E+00  0.0000E+00  9.0
  3000025    2    1    2    0    0 -1.64386716354E+02 -1.85494416158E+00  9.39389276264E+01  2.47952260054E+02  1.60091748103E+02  3.7371E-13  9.0
 -3000025    2    1    2    0    0  1.64386716354E+02  1.85494416158E+00 -8.74095752924E+01  2.45518387613E+02  1.60038781150E+02  5.8896E-12  9.0
        4    1    3    3  500    0 -5.03350159867E+01 -2.08255480104E+01  1.73988040974E+00  5.45206382589E+01  1.46817165330E+00  0.0000E+00  9.0
       -3    1    3    3    0  500 -1.62218694851E-01 -3.83798722501E+00  5.82311644063E+01  5.83580754392E+01  2.00000000000E-01  0.0000E+00  9.0
  3000022    1    3    3    0    0 -1.13889481673E+02  2.28085910740E+01  3.39678828103E+01  1.35073546356E+02  6.00000000000E+01  0.0000E+00  9.0
       -2    1    4    4    0  504  7.32141961624E+01 -2.80309014092E+01 -2.08152312634E-01  7.83970234761E+01  3.00000000000E-03  0.0000E+00  9.0
        1    1    4    4  504    0  6.98394706951E+01  3.45144549307E+01 -3.89836535355E+01  8.71121376968E+01  5.00000000000E-03  0.0000E+00  9.0
  3000022    1    4    4    0    0  2.13330494968E+01 -4.62860935994E+00 -4.82177694443E+01  8.00092264406E+01  6.00000000000E+01  0.0000E+00  9.0
</event>
<event>
10    1   3.4312288E-02   4.3170000E+02  -1.0000000E+00   9.5140000E-02
       11   -1    0    0    0    0  0.00000000000E+00  0.00000000000E+00  1.86923654400E+02  1.86923654400E+02  0.00000000000E+00  0.0000E+00  9.0
      -11   -1    0    0    0    0  0.00000000000E+00  0.00000000000E+00 -2.49262151830E+02  2.49262151830E+02  0.00000000000E+00  0.0000E+00  9.0
  3000025    2    1    2    0    0  3.81831491470E+01  8.93848898249E+01 -1.39727596323E+02  2.33628417729E+02  1.60033824515E+02  5.6738E-13  9.0
 -3000025    2    1    2    0    0 -3.81831491470E+01 -8.93848898249E+01  7.73890988977E+01  2.02557388501E+02  1.59977534674E+02  3.7872E-12  9.0
        2    1    3    3  500    0 -1.20840817622E+01 -1.87729936384E+01 -5.44170248029E+01  5.88188993401E+01  3.00000000000E-03  0.0000E+00  9.0
       -1    1    3    3    0  500  1.53053906189E+00  5.52419589968E+01 -5.05373876783E+01  7.48868757658E+01  5.00000000000E-03  0.0000E+00  9.0
  3000022    1    3    3    0    0  4.87366918473E+01  5.29159244666E+01 -3.47731838415E+01  9.99226426234E+01  6.00000000000E+01  0.0000E+00  9.0
       -4    1    4    4    0  504 -6.20575250054E+01 -6.38715007248E+01  4.42870051014E+01  9.94695901444E+01  1.46817165330E+00  0.0000E+00  9.0
        3    1    4    4  504    0  1.68445962304E+01 -1.52929845522E+01 -1.31882500500E+01  2.62980177592E+01  2.00000000000E-01  0.0000E+00  9.0
  3000022    1    4    4    0    0  7.02977962897E+00 -1.02204045485E+01  4.62903438463E+01  7.67897805973E+01  6.00000000000E+01  0.0000E+00  9.0
</event>
<event>
10    1   3.4312288E-02   4.9710000E+02  -1.0000000E+00   9.3560000E-02
       11   -1    0    0    0    0  0.00000000000E+00  0.00000000000E+00  2.49996921140E+02  2.49996921140E+02  0.00000000000E+00  0.0000E+00  9.0
      -11   -1    0    0    0    0  0.00000000000E+00  0.00000000000E+00 -2.47081239680E+02  2.47081239680E+02  0.00000000000E+00  0.0000E+00  9.0
  3000025    2    1    2    0    0  4.93621840315E+01 -1.60105891909E+02  9.15203758684E+01  2.49057981320E+02  1.59948044763E+02  4.4275E-13  9.0
 -3000025    2    1    2    0    0 -4.93621840315E+01  1.60105891909E+02 -8.86046944094E+01  2.48020179490E+02  1.59977172517E+02  2.5919E-13  9.0
        4    1    3    3  500    0  1.99911806611E+00 -7.99479437665E+01  2.22638614414E+01  8.30271355632E+01  1.46817165330E+00  0.0000E+00  9.0
       -3    1    3    3    0  500 -5.00154597703E+00  2.04944033436E+01  2.16933905656E+00  2.12080659777E+01  2.00000000000E-01  0.0000E+00  9.0
  3000022    1    3    3    0    0  5.23646119425E+01 -1.00652351487E+02  6.70871753712E+01  1.44822779779E+02  6.00000000000E+01  0.0000E+00  9.0
       -2    1    4    4    0  504 -1.82986341882E+01  5.69258966880E+01 -5.45726324045E+01  8.09541224611E+01  3.00000000000E-03  0.0000E+00  9.0
        1    1    4    4  504    0  3.55237663603E+01  1.77534281842E+01 -9.62552848578E+00  4.08628561452E+01  5.00000000000E-03  0.0000E+00  9.0
  3000022    1    4    4    0    0 -6.65873162032E+01  8.54265670375E+01 -2.44065335192E+01  1.26203200884E+02  6.00000000000E+01  0.0000E+00  9.0
</event>
<event>
10    1   3.4312288E-02   4.9370000E+02  -1.0000000E+00   9.3630000E-02
       11   -1    0    0    0    0  0.00000000000E+00  0.00000000000E+00  2.49991680420E+02  2.49991680420E+02  0.00000000000E+00  0.0000E+00  9.0
      -11   -1    0    0    0    0  0.00000000000E+00  0.00000000000E+00 -2.43735471520E+02  2.43735471520E+02  0.00000000000E+00  0.0000E+00  9.0
  3000025    2    1    2    0    0  1.41481480952E+02 -2.20772436166E+01 -1.18617815049E+02  2.45334546431E+02  1.60045117037E+02  1.9316E-12  9.0
 -3000025    2    1    2    0    0 -1.41481480952E+02  2.20772436166E+01  1.24874023949E+02  2.48392605504E+02  1.60002970203E+02  2.0474E-12  9.0
       14    1    3    3    0    0  5.98320358535E+01  2.68820854376E+00 -7.43369886311E+01  9.54624892735E+01  0.00000000000E+00  0.0000E+00  9.0
      -13    1    3    3    0    0 -9.79317729928E+00 -3.18498119819E+01 -6.54276293171E+00  3.39578527614E+01  1.05700000000E-01  0.0000E+00  9.0
  3000022    1    3    3    0    0  9.14426223981E+01  7.08435982196E+00 -3.77380634862E+01  1.15914204396E+02  6.00000000000E+01  0.0000E+00  9.0
       -4    1    4    4    0  500 -8.45872581539E+01 -9.51799336605E+00  6.25027715314E+01  1.05614148753E+02  1.46817165330E+00  0.0000E+00  9.0
        3    1    4    4  500    0  1.93265209470E-02 -6.35516384015E+00 -1.94171553410E+01  2.04317009200E+01  2.00000000000E-01  0.0000E+00  9.0
  3000022    1    4    4    0    0 -5.69135493184E+01  3.79504008238E+01  8.17884077572E+01  1.22346755830E+02  6.00000000000E+01  0.0000E+00  9.0
</event>
<event>
10    1   3.4312288E-02   4.9010000E+02  -1.0000000E+00   9.3710000E-02
       11   -1    0    0    0    0  0.00000000000E+00  0.00000000000E+00  2.48539388600E+02  2.48539388600E+02  0.00000000000E+00  0.0000E+00  9.0
      -11   -1    0    0    0    0  0.00000000000E+00  0.00000000000E+00 -2.41629903620E+02  2.41629903620E+02  0.00000000000E+00  0.0000E+00  9.0
  3000025    2    1    2    0    0 -5.73759111348E+01 -1.18343920398E+02 -1.27580398191E+02  2.43292272014E+02  1.60053406541E+02  6.6668E-13  9.0
 -3000025    2    1    2    0    0  5.73759111348E+01  1.18343920398E+02  1.34489883181E+02  2.46877020204E+02  1.59885758444E+02  1.2957E-12  9.0
       14    1    3    3    0    0 -2.69516896216E+01 -6.49828863066E+01 -5.53206208951E+00  7.05675052496E+01  0.00000000000E+00  0.0000E+00  9.0
      -13    1    3    3    0    0 -4.31360890562E+01 -1.04484461631E+01 -6.45501504045E+01  7.83366152960E+01  1.05700000000E-01  0.0000E+00  9.0
  3000022    1    3    3    0    0  1.27118675431E+01 -4.29125879273E+01 -5.74981856968E+01  9.43881514676E+01  6.00000000000E+01  0.0000E+00  9.0
       -4    1    4    4    0  500 -2.61670341023E+01  2.34219709445E+01  5.73130859431E+00  3.56132815512E+01  1.46817165330E+00  0.0000E+00  9.0
        3    1    4    4  500    0  5.50859480716E+01  7.48488474890E+01  4.73384159465E+01  1.04296583212E+02  2.00000000000E-01  0.0000E+00  9.0
  3000022    1    4    4    0    0  2.84569971653E+01  2.00731019649E+01  8.14201586415E+01  1.06967155442E+02  6.00000000000E+01  0.0000E+00  9.0
</event>
<event>
10    1   3.4312288E-02   4.9890000E+02  -1.0000000E+00   9.3510000E-02
       11   -1    0    0    0    0  0.00000000000E+00  0.00000000000E+00  2.48931609120E+02  2.48931609120E+02  0.00000000000E+00  0.0000E+00  9.0
      -11   -1    0    0    0    0  0.00000000000E+00  0.00000000000E+00 -2.49999999990E+02  2.49999999990E+02  0.00000000000E+00  0.0000E+00  9.0
  3000025    2    1    2    0    0 -5.41526367368E+01  1.81459729436E+02 -2.68967154713E+01  2.49695728872E+02  1.60512872510E+02  4.2697E-13  9.0
 -3000025    2    1    2    0    0  5.41526367368E+01 -1.81459729436E+02  2.58283246003E+01  2.49235880228E+02  1.59972748207E+02  5.6264E-14  9.0
        4    1    3    3  500    0  3.06072340413E+01  1.11084108628E+01  5.84510192349E+00  3.31137480823E+01  1.46817165330E+00  0.0000E+00  9.0
       -3    1    3    3    0  500 -5.24843797686E+01  3.76073131568E+01 -4.48489281268E+00  6.47230591529E+01  2.00000000000E-01  0.0000E+00  9.0
  3000022    1    3    3    0    0 -3.22754910087E+01  1.32744005417E+02 -2.82569245824E+01  1.51858921637E+02  6.00000000000E+01  0.0000E+00  9.0
       -2    1    4    4    0  504  2.94098860468E+01 -3.00527666632E+01  4.68822129753E+01  6.29765994942E+01  3.00000000000E-03  0.0000E+00  9.0
        1    1    4    4  504    0  1.45125192653E+00 -1.03065292850E+02 -7.47499204972E-02  1.03075537035E+02  5.00000000000E-03  0.0000E+00  9.0
  3000022    1    4    4    0    0  2.32914987640E+01 -4.83416699243E+01 -2.09791384549E+01  8.31837437006E+01  6.00000000000E+01  0.0000E+00  9.0
</event>
<event>
10    1   3.4312288E-02   4.9570000E+02  -1.0000000E+00   9.3590000E-02
       11   -1    0    0    0    0  0.00000000000E+00  0.00000000000E+00  2.45696203840E+02  2.45696203840E+02  0.00000000000E+00  0.0000E+00  9.0
      -11   -1    0    0    0    0  0.00000000000E+00  0.00000000000E+00 -2.49999999940E+02  2.49999999940E+02  0.00000000000E+00  0.0000E+00  9.0
  3000025    2    1    2    0    0  3.71767214353E+01 -6.66552970879E+01 -1.75390214333E+02  2.49368638767E+02  1.59993604467E+02  2.6561E-12  9.0
 -3000025    2    1    2    0    0 -3.71767214353E+01  6.66552970879E+01  1.71086418233E+02  2.46327565008E+02  1.59942707030E+02  3.2182E-13  9.0
        4    1    3    3  500    0  6.98646799568E+01 -4.68524753275E+01 -8.67098882655E+01  1.20817996179E+02  1.46817165330E+00  0.0000E+00  9.0
       -3    1    3    3    0  500 -1.45579110861E+01  8.15236662324E+00 -4.29558550166E+01  4.60829614604E+01  2.00000000000E-01  0.0000E+00  9.0
  3000022    1    3    3    0    0 -1.81300474364E+01 -2.79551883833E+01 -4.57244710506E+01  8.24676811269E+01  6.00000000000E+01  0.0000E+00  9.0
       -4    1    4    4    0  504 -2.69050856075E+01  1.69719523826E+01  1.33102635198E+01  3.45144816301E+01  1.46817165330E+00  0.0000E+00  9.0
        3    1    4    4  504    0 -1.46159321032E+01 -4.44159835215E-01 -1.57164113083E+01  2.14678441771E+01  2.00000000000E-01  0.0000E+00  9.0
  3000022    1    4    4    0    0  4.34429627546E+00  5.01275045399E+01  1.73492566020E+02  1.90345239199E+02  6.00000000000E+01  0.0000E+00  9.0
</event>
<event>
10    1   3.4312288E-02   4.8700000E+02  -1.0000000E+00   9.3780000E-02
       11   -1    0    0    0    0  0.00000000000E+00  0.00000000000E+00  2.49999998750E+02  2.49999998750E+02  0.00000000000E+00  0.0000E+00  9.0
      -11   -1    0    0    0    0  0.00000000000E+00  0.00000000000E+00 -2.37147599460E+02  2.37147599460E+02  0.00000000000E+00  0.0000E+00  9.0
  3000025    2    1    2    0    0  1.38916216653E+02 -1.11166672247E+02  5.27377758417E+01  2.45115096161E+02  1.60138668341E+02  7.4836E-13  9.0
 -3000025    2    1    2    0    0 -1.38916216653E+02  1.11166672247E+02 -3.98853765517E+01  2.42032502051E+02  1.59163892007E+02  2.1725E-12  9.0
        2    1    3    3  500    0 -1.41650524202E+01 -8.70952074079E+00  2.39423856810E+01  2.91503396669E+01  3.00000000000E-03  0.0000E+00  9.0
       -1    1    3    3    0  500  9.59406842577E+01 -5.86932386363E+01  4.45016595029E+01  1.20954160247E+02  5.00000000000E-03  0.0000E+00  9.0
  3000022    1    3    3    0    0  5.71405848161E+01 -4.37639128700E+01 -1.57062693422E+01  9.50105962483E+01  6.00000000000E+01  0.0000E+00  9.0
       -2    1    4    4    0  504 -5.08940205248E+01  3.98337606363E+01  2.17996905867E+01  6.82067176331E+01  3.00000000000E-03  0.0000E+00  9.0
        1    1    4    4  504    0 -8.08297462487E+00 -2.05241734599E+01 -2.47246996607E+01  3.31343775150E+01  5.00000000000E-03  0.0000E+00  9.0
  3000022    1    4    4    0    0 -7.99392215020E+01  9.18570850705E+01 -3.69603674767E+01  1.40691406902E+02  6.00000000000E+01  0.0000E+00  9.0
</event>
<event>
10    1   3.4312288E-02   4.9280000E+02  -1.0000000E+00   9.3650000E-02
       11   -1    0    0    0    0  0.00000000000E+00  0.00000000000E+00  2.50000000000E+02  2.50000000000E+02  0.00000000000E+00  0.0000E+00  9.0
      -11   -1    0    0    0    0  0.00000000000E+00  0.00000000000E+00 -2.42844885890E+02  2.42844885890E+02  0.00000000000E+00  0.0000E+00  9.0
  3000025    2    1    2    0    0  1.19146298214E+02 -1.43684953805E+02  1.99369695637E+01  2.46528546568E+02  1.59804991129E+02  1.8161E-13  9.0
 -3000025    2    1    2    0    0 -1.19146298214E+02  1.43684953805E+02 -1.27818554507E+01  2.46316339326E+02  1.60209727740E+02  5.0196E-13  9.0
        4    1    3    3  500    0 -1.42334055654E+01 -4.82634492092E+01 -1.96198945195E+01  5.40281977537E+01  1.46817165330E+00  0.0000E+00  9.0
       -3    1    3    3    0  500  6.30395354502E+01 -3.21734784036E+01 -7.14839620892E+00  7.11354715365E+01  2.00000000000E-01  0.0000E+00  9.0
  3000022    1    3    3    0    0  7.03401683291E+01 -6.32480261924E+01  4.67052602921E+01  1.21364877278E+02  6.00000000000E+01  0.0000E+00  9.0
      -14    1    4    4    0    0 -2.92669292787E+01  5.76946357827E+01 -4.85952018648E+01  8.09117901902E+01  0.00000000000E+00  0.0000E+00  9.0
       13    1    4    4    0    0 -1.33774227591E+01 -1.55329291200E+01  8.57692167879E+00  2.22216580097E+01  1.05700000000E-01  0.0000E+00  9.0
  3000022    1    4    4    0    0 -7.65019461755E+01  1.01523247142E+02  2.72364247354E+01  1.43182891126E+02  6.00000000000E+01  0.0000E+00  9.0
</event>
<event>
10    1   3.4312288E-02   4.9950000E+02  -1.0000000E+00   9.3500000E-02
       11   -1    0    0    0    0  0.00000000000E+00  0.00000000000E+00  2.49517270800E+02  2.49517270800E+02  0.00000000000E+00  0.0000E+00  9.0
      -11   -1    0    0    0    0  0.00000000000E+00  0.00000000000E+00 -2.50000000000E+02  2.50000000000E+02  0.00000000000E+00  0.0000E+00  9.0
  3000025    2    1    2    0    0 -2.29725250779E+01 -1.72671618252E+02 -8.05176719689E+01  2.49826734630E+02  1.59959611085E+02  1.0803E-13  9.0
 -3000025    2    1    2    0    0  2.29725250779E+01  1.72671618252E+02  8.00349427709E+01  2.49690536166E+02  1.59989209411E+02  3.4403E-12  9.0
       14    1    3    3    0    0 -2.43610937850E+01 -5.43137879310E+01 -7.36583614420E+01  9.47048291278E+01  0.00000000000E+00  0.0000E+00  9.0
      -13    1    3    3    0    0 -3.01253223491E+01 -2.43155936861E+01 -6.16102969389E+00  3.92014362278E+01  1.05700000000E-01  0.0000E+00  9.0
  3000022    1    3    3    0    0  3.15138910551E+01 -9.40422366354E+01 -6.98280833253E-01  1.15920469275E+02  6.00000000000E+01  0.0000E+00  9.0
       -2    1    4    4    0  500  9.88771895722E+00  8.13963859511E+00 -2.62005636989E+01  2.91631659766E+01  3.00000000000E-03  0.0000E+00  9.0
        1    1    4    4  500    0 -2.40190531050E+00  1.00475123421E+02  3.49701474269E+01  1.06413959666E+02  5.00000000000E-03  0.0000E+00  9.0
  3000022    1    4    4    0    0  1.54867114312E+01  6.40568562360E+01  7.12653590434E+01  1.14113410524E+02  6.00000000000E+01  0.0000E+00  9.0
</event>
<event>
10    1   3.4312288E-02   4.9940000E+02  -1.0000000E+00   9.3500000E-02
       11   -1    0    0    0    0  0.00000000000E+00  0.00000000000E+00  2.49594766850E+02  2.49594766850E+02  0.00000000000E+00  0.0000E+00  9.0
      -11   -1    0    0    0    0  0.00000000000E+00  0.00000000000E+00 -2.49854018000E+02  2.49854018000E+02  0.00000000000E+00  0.0000E+00  9.0
  3000025    2    1    2    0    0 -1.52122740898E+02 -3.37318382159E+01  1.12332100805E+02  2.49945033846E+02  1.59921399022E+02  1.1054E-12  9.0
 -3000025    2    1    2    0    0  1.52122740898E+02  3.37318382159E+01 -1.12591351955E+02  2.49503750999E+02  1.59047615575E+02  5.9909E-14  9.0
        4    1    3    3  500    0 -5.64017502638E+01 -1.48064929746E+01 -1.46612149843E+01  6.01456267724E+01  1.46817165330E+00  0.0000E+00  9.0
       -3    1    3    3    0  500  8.32813577139E+00 -2.21548973556E+00  3.90787871733E+01  4.00182189400E+01  2.00000000000E-01  0.0000E+00  9.0
  3000022    1    3    3    0    0 -1.04049126405E+02 -1.67098555058E+01  8.79145286163E+01  1.49781188133E+02  6.00000000000E+01  0.0000E+00  9.0
       -2    1    4    4    0  504  1.33335465065E+02  3.44674285664E+01 -7.37467706708E+01  1.56220792693E+02  3.00000000000E-03  0.0000E+00  9.0
        1    1    4    4  504    0 -1.09125484755E+01  6.80289828458E+00 -1.91952850331E+01  2.31045911412E+01  5.00000000000E-03  0.0000E+00  9.0
  3000022    1    4    4    0    0  2.96998243069E+01 -7.53848863482E+00 -1.96492962513E+01  7.01783671649E+01  6.00000000000E+01  0.0000E+00  9.0
</event>
<event>
10    1   3.4312288E-02   4.5910000E+02  -1.0000000E+00   9.4440000E-02
       11   -1    0    0    0    0  0.00000000000E+00  0.00000000000E+00  2.10754794560E+02  2.10754794560E+02  0.00000000000E+00  0.0000E+00  9.0
      -11   -1    0    0    0    0  0.00000000000E+00  0.00000000000E+00 -2.49999930370E+02  2.49999930370E+02  0.00000000000E+00  0.0000E+00  9.0
  3000025    2    1    2    0    0  6.92799677380E+01 -1.03722508898E+02  8.81870391627E+01  2.21227102247E+02  1.60020011594E+02  1.4519E-12  9.0
 -3000025    2    1    2    0    0 -6.92799677380E+01  1.03722508898E+02 -1.27432174971E+02  2.39527622682E+02  1.59926389406E+02  2.5907E-12  9.0
        4    1    3    3  500    0 -1.06884735225E+00 -2.12611451182E+01  3.10530537678E+01  3.76779299154E+01  1.46817165330E+00  0.0000E+00  9.0
       -3    1    3    3    0  500  5.47479755690E+01  4.51466770230E-01  5.83502797098E+01  8.00146223721E+01  2.00000000000E-01  0.0000E+00  9.0
  3000022    1    3    3    0    0  1.56008395202E+01 -8.29128305491E+01 -1.21629431504E+00  1.03534549959E+02  6.00000000000E+01  0.0000E+00  9.0
       -2    1    4    4    0  504 -5.03784745682E+01  8.60913591758E+01 -2.09663339180E+01  1.01927915664E+02  3.00000000000E-03  0.0000E+00  9.0
        1    1    4    4  504    0  1.17303868985E+01 -8.86452432316E+00 -1.58646590672E+01  2.16302843389E+01  5.00000000000E-03  0.0000E+00  9.0
  3000022    1    4    4    0    0 -3.06318800676E+01  2.64956740447E+01 -9.06011819843E+01  1.15969422679E+02  6.00000000000E+01  0.0000E+00  9.0
</event>
<event>
10    1   3.4312288E-02   4.9570000E+02  -1.0000000E+00   9.3590000E-02
       11   -1    0    0    0    0  0.00000000000E+00  0.00000000000E+00  2.49993919950E+02  2.49993919950E+02  0.00000000000E+00  0.0000E+00  9.0
      -11   -1    0    0    0    0  0.00000000000E+00  0.00000000000E+00 -2.45755027430E+02  2.45755027430E+02  0.00000000000E+00  0.0000E+00  9.0
  3000025    2    1    2    0    0  1.08311507403E+01 -1.88587048718E+02  1.49295686261E+01  2.47970018560E+02  1.59949521146E+02  7.7007E-13  9.0
 -3000025    2    1    2    0    0 -1.08311507403E+01  1.88587048718E+02 -1.06906761001E+01  2.47778928824E+02  1.59992869351E+02  2.9320E-13  9.0
        2    1    3    3  500    0  3.56942458189E+01 -7.84110807271E-01 -1.40865417991E+00  3.57306357338E+01  3.00000000000E-03  0.0000E+00  9.0
       -1    1    3    3    0  500 -2.55956920496E+01 -7.12430053570E+01 -1.56335237327E+01  7.72988509170E+01  5.00000000000E-03  0.0000E+00  9.0
  3000022    1    3    3    0    0  7.32596970881E-01 -1.16559932554E+02  3.19717465389E+01  1.34940531910E+02  6.00000000000E+01  0.0000E+00  9.0
      -14    1    4    4    0    0  3.48682941451E+01  6.12488304854E+01  3.63695808743E+01  7.93092906625E+01  0.00000000000E+00  0.0000E+00  9.0
       13    1    4    4    0    0 -2.58159547819E+01  7.24828227937E+01 -1.26356942415E+01  7.79736818606E+01  1.05700000000E-01  0.0000E+00  9.0
  3000022    1    4    4    0    0 -1.98834901034E+01  5.48553954381E+01 -3.44245627325E+01  9.04959563002E+01  6.00000000000E+01  0.0000E+00  9.0
</event>
<event>
10    1   3.4312288E-02   5.0000000E+02  -1.0000000E+00   9.3490000E-02
       11   -1    0    0    0    0  0.00000000000E+00  0.00000000000E+00  2.49976974000E+02  2.49976974000E+02  0.00000000000E+00  0.0000E+00  9.0
      -11   -1    0    0    0    0  0.00000000000E+00  0.00000000000E+00 -2.50000000000E+02  2.50000000000E+02  0.00000000000E+00  0.0000E+00  9.0
  3000025    2    1    2    0    0  1.90819122111E+02 -8.99259231646E+00 -1.71607074938E+01  2.50024925149E+02  1.60390676894E+02  6.7762E-13  9.0
 -3000025    2    1    2    0    0 -1.90819122111E+02  8.99259231646E+00  1.71376814978E+01  2.49952048860E+02  1.60279513732E+02  1.0524E-12  9.0
        4    1    3    3  500    0  7.02451635821E+01 -4.26319908287E+00  1.99828359413E+01  7.31712179300E+01  1.46817165330E+00  0.0000E+00  9.0
       -3    1    3    3    0  500  5.00080037655E+01  3.52184768581E+01 -4.46095867593E+01  7.57046681761E+01  2.00000000000E-01  0.0000E+00  9.0
  3000022    1    3    3    0    0  7.05659547632E+01 -3.99478700911E+01  7.46604332426E+00  1.01149039043E+02  6.00000000000E+01  0.0000E+00  9.0
       -2    1    4    4    0  504 -1.57901559403E+01 -4.32368326382E+00  3.92480334051E+01  4.25256557475E+01  3.00000000000E-03  0.0000E+00  9.0
        1    1    4    4  504    0 -1.04303936351E+02 -2.22338937275E+01 -6.14223014766E+00  1.06824080548E+02  5.00000000000E-03  0.0000E+00  9.0
  3000022    1    4    4    0    0 -7.07250298199E+01  3.55501693084E+01 -1.59681217597E+01  1.00602312565E+02  6.00000000000E+01  0.0000E+00  9.0
</event>
<event>
10    1   3.4312288E-02   4.9950000E+02  -1.0000000E+00   9.3500000E-02
       11   -1    0    0    0    0  0.00000000000E+00  0.00000000000E+00  2.49490557110E+02  2.49490557110E+02  0.00000000000E+00  0.0000E+00  9.0
      -11   -1    0    0    0    0  0.00000000000E+00  0.00000000000E+00 -2.49999994350E+02  2.49999994350E+02  0.00000000000E+00  0.0000E+00  9.0
  3000025    2    1    2    0    0 -6.18376705932E+01 -1.38085274908E+02 -1.18123863541E+02  2.49939659652E+02  1.60078560958E+02  2.0320E-13  9.0
 -3000025    2    1    2    0    0  6.18376705932E+01  1.38085274908E+02  1.17614426301E+02  2.49550891806E+02  1.59846969556E+02  4.6343E-13  9.0
       14    1    3    3    0    0 -7.06980654938E+00  1.11985925739E+01 -3.25198062926E+01  3.51130807762E+01  0.00000000000E+00  0.0000E+00  9.0
      -13    1    3    3    0    0 -5.09548126458E+01 -6.76884048194E+01 -4.19539898171E+00  8.48276230002E+01  1.05700000000E-01  0.0000E+00  9.0
  3000022    1    3    3    0    0 -3.81305139804E+00 -8.15954626622E+01 -8.14086582667E+01  1.29998955876E+02  6.00000000000E+01  0.0000E+00  9.0
      -14    1    4    4    0    0  2.54117665625E-01 -1.34340661730E+01 -7.34395420157E+00  1.53124907525E+01  0.00000000000E+00  0.0000E+00  9.0
       13    1    4    4    0    0  1.64666184971E+01  9.93825592800E+01  3.67922594988E+01  1.07246091515E+02  1.05700000000E-01  0.0000E+00  9.0
  3000022    1    4    4    0    0  4.51169344307E+01  5.21367818007E+01  8.81661210040E+01  1.26992309538E+02  6.00000000000E+01  0.0000E+00  9.0
</event>
<event>
10    1   3.4312288E-02   4.9900000E+02  -1.0000000E+00   9.3510000E-02
       11   -1    0    0    0    0  0.00000000000E+00  0.00000000000E+00  2.50000000000E+02  2.50000000000E+02  0.00000000000E+00  0.0000E+00  9.0
      -11   -1    0    0    0    0  0.00000000000E+00  0.00000000000E+00 -2.49039538910E+02  2.49039538910E+02  0.00000000000E+00  0.0000E+00  9.0
  3000025    2    1    2    0    0  1.20717604713E+02  9.44898027213E+01  1.15085506483E+02  2.49707938810E+02  1.60025991627E+02  4.6069E-13  9.0
 -3000025    2    1    2    0    0 -1.20717604713E+02 -9.44898027213E+01 -1.14125045393E+02  2.49331600103E+02  1.60127005587E+02  1.4173E-12  9.0
        2    1    3    3  500    0  6.89745521120E+00  6.10836692809E+01  2.21478126208E+01  6.53399965878E+01  3.00000000000E-03  0.0000E+00  9.0
       -1    1    3    3    0  500  1.31106898319E+01 -2.08550054373E+01  3.49835760007E+01  4.27863536008E+01  5.00000000000E-03  0.0000E+00  9.0
  3000022    1    3    3    0    0  1.00709459670E+02  5.42611388781E+01  5.79541178612E+01  1.41581588621E+02  6.00000000000E+01  0.0000E+00  9.0
       -4    1    4    4    0  504  1.54342460289E+00  7.95387377287E+00  9.75182505223E+00  1.27632240187E+01  1.46817165330E+00  0.0000E+00  9.0
        3    1    4    4  504    0 -9.30950533775E+01 -2.46440383001E+01 -4.05868422675E+01  1.04505259927E+02  2.00000000000E-01  0.0000E+00  9.0
  3000022    1    4    4    0    0 -2.91659759382E+01 -7.77996381929E+01 -8.32900281776E+01  1.32063116157E+02  6.00000000000E+01  0.0000E+00  9.0
</event>
<event>
10    1   3.4312288E-02   4.9700000E+02  -1.0000000E+00   9.3560000E-02
       11   -1    0    0    0    0  0.00000000000E+00  0.00000000000E+00  2.49999374430E+02  2.49999374430E+02  0.00000000000E+00  0.0000E+00  9.0
      -11   -1    0    0    0    0  0.00000000000E+00  0.00000000000E+00 -2.47050044140E+02  2.47050044140E+02  0.00000000000E+00  0.0000E+00  9.0
  3000025    2    1    2    0    0 -1.83500109019E+02 -4.71470334287E+01 -1.46565742469E+01  2.48440029914E+02  1.60039059370E+02  1.3264E-12  9.0
 -3000025    2    1    2    0    0  1.83500109019E+02  4.71470334287E+01  1.76059045389E+01  2.48609388658E+02  1.60004773313E+02  3.3528E-12  9.0
        2    1    3    3  500    0 -6.83943909614E+01 -7.51558760586E+00  2.19991901094E+01  7.22373943779E+01  3.00000000000E-03  0.0000E+00  9.0
       -1    1    3    3    0  500 -3.59271142569E+01  1.67381028305E+01 -4.70370037427E+01  6.15093600299E+01  5.00000000000E-03  0.0000E+00  9.0
  3000022    1    3    3    0    0 -7.91786038011E+01 -5.63695486533E+01  1.03812393864E+01  1.14693275507E+02  6.00000000000E+01  0.0000E+00  9.0
       -4    1    4    4    0  504  2.03236659237E+01 -1.56206965516E+01  3.49757762205E+01  4.33879938182E+01  1.46817165330E+00  0.0000E+00  9.0
        3    1    4    4  504    0  3.60423592851E+01  1.54239941178E+01 -3.90169779608E+01  5.53110823124E+01  2.00000000000E-01  0.0000E+00  9.0
  3000022    1    4    4    0    0  1.27134083809E+02  4.73437358621E+01  2.16471062791E+01  1.49910312526E+02  6.00000000000E+01  0.0000E+00  9.0
</event>
<event>
10    1   3.4312288E-02   4.9710000E+02  -1.0000000E+00   9.3550000E-02
       11   -1    0    0    0    0  0.00000000000E+00  0.00000000000E+00  2.47151801980E+02  2.47151801980E+02  0.00000000000E+00  0.0000E+00  9.0
      -11   -1    0    0    0    0  0.00000000000E+00  0.00000000000E+00 -2.49999994120E+02  2.49999994120E+02  0.00000000000E+00  0.0000E+00  9.0
  3000025    2    1    2    0    0  5.20295822112E+01  1.81797290033E+02 -2.26330486515E+01  2.48726077646E+02  1.59984607766E+02  8.5759E-13  9.0
 -3000025    2    1    2    0    0 -5.20295822112E+01 -1.81797290033E+02  1.97848565085E+01  2.48425718453E+02  1.59895481342E+02  9.0877E-13  9.0
        4    1    3    3  500    0 -3.17780672636E+01  8.39134022868E+01 -8.98070393952E+00  9.01893187335E+01  1.46817165330E+00  0.0000E+00  9.0
       -3    1    3    3    0  500  3.04391443787E+01  1.90954701028E+01 -2.74186246665E+01  4.51995516300E+01  2.00000000000E-01  0.0000E+00  9.0
  3000022    1    3    3    0    0  5.33685050972E+01  7.87884176431E+01  1.37662799541E+01  1.13337207283E+02  6.00000000000E+01  0.0000E+00  9.0
       -4    1    4    4    0  504 -3.16295903523E+00 -8.46743361622E+00 -3.10518070450E+01  3.23739399929E+01  1.46817165330E+00  0.0000E+00  9.0
        3    1    4    4  504    0  5.75222262618E+00 -1.01123619490E+02  2.14670063152E+01  1.03537176145E+02  2.00000000000E-01  0.0000E+00  9.0
  3000022    1    4    4    0    0 -5.46188458015E+01 -7.22062369247E+01  2.93696572383E+01  1.12514602314E+02  6.00000000000E+01  0.0000E+00  9.0
</event>
<event>
10    1   3.4312288E-02   4.8850000E+02  -1.0000000E+00   9.3750000E-02
       11   -1    0    0    0    0  0.00000000000E+00  0.00000000000E+00  2.49000087590E+02  2.49000087590E+02  0.00000000000E+00  0.0000E+00  9.0
      -11   -1    0    0    0    0  0.00000000000E+00  0.00000000000E+00 -2.39606008170E+02  2.39606008170E+02  0.00000000000E+00  0.0000E+00  9.0
  3000025    2    1    2    0    0 -1.82904323136E+00 -1.54443746702E+02  1.06059589688E+02  2.46401326127E+02  1.60027374714E+02  1.3904E-14  9.0
 -3000025    2    1    2    0    0  1.82904323136E+00  1.54443746702E+02 -9.66655102722E+01  2.42204769639E+02  1.59570402222E+02  1.1986E-12  9.0
        4    1    3    3  500    0 -1.53496669395E+01  1.58161898647E+01  2.30959049515E+01  3.19584181480E+01  1.46817165330E+00  0.0000E+00  9.0
       -3    1    3    3    0  500 -1.34832626017E+01 -8.83375134169E+01  5.77140479352E+01  1.06377939330E+02  2.00000000000E-01  0.0000E+00  9.0
  3000022    1    3    3    0    0  2.70038863088E+01 -8.19224231500E+01  2.52496368024E+01  1.08064968649E+02  6.00000000000E+01  0.0000E+00  9.0
       -2    1    4    4    0  504 -1.20426903695E+01 -1.21967268477E+01  3.09446537875E+00  1.74172977844E+01  3.00000000000E-03  0.0000E+00  9.0
        1    1    4    4  504    0  4.45557118041E+01  6.63944951473E+01 -4.88853585178E+01  9.37188281118E+01  5.00000000000E-03  0.0000E+00  9.0
  3000022    1    4    4    0    0 -3.06839782043E+01  1.00245978401E+02 -5.08746171329E+01  1.31068643742E+02  6.00000000000E+01  0.0000E+00  9.0
</event>
<event>
10    1   3.4312288E-02   4.7480000E+02  -1.0000000E+00   9.4070000E-02
       11   -1    0    0    0    0  0.00000000000E+00  0.00000000000E+00  2.47550826990E+02  2.47550826990E+02  0.00000000000E+00  0.0000E+00  9.0
      -11   -1    0    0    0    0  0.00000000000E+00  0.00000000000E+00 -2.27699727200E+02  2.27699727200E+02  0.00000000000E+00  0.0000E+00  9.0
  3000025    2    1    2    0    0 -2.29514364112E+01  1.42766034137E+02 -8.94563040164E+01  2.33474512275E+02  1.59996901900E+02  1.2898E-12  9.0
 -3000025    2    1    2    0    0  2.29514364112E+01 -1.42766034137E+02  1.09307403807E+02  2.41776041908E+02  1.59995740496E+02  4.9018E-12  9.0
        4    1    3    3  500    0 -1.62733171054E+01  6.07441022891E+01 -4.11217423628E+01  7.51519795846E+01  1.46817165330E+00  0.0000E+00  9.0
       -3    1    3    3    0  500  1.46314684205E+01  3.71970560389E+01  2.83731953547E+01  4.90181503194E+01  2.00000000000E-01  0.0000E+00  9.0
  3000022    1    3    3    0    0 -2.13095877262E+01  4.48248758079E+01 -7.67077570081E+01  1.09304382371E+02  6.00000000000E+01  0.0000E+00  9.0
       -4    1    4    4    0  504  1.56534315834E+01 -7.68142023622E+01 -2.60099854723E+00  7.84498076882E+01  1.46817165330E+00  0.0000E+00  9.0
        3    1    4    4  504    0  2.74778930410E+01 -1.11053865007E+00  3.47033864066E+01  4.42790348828E+01  2.00000000000E-01  0.0000E+00  9.0
  3000022    1    4    4    0    0 -2.01798882136E+01 -6.48412931239E+01  7.72050159480E+01  1.19047199336E+02  6.00000000000E+01  0.0000E+00  9.0
</event>
<event>
10    1   3.4312288E-02   4.9960000E+02  -1.0000000E+00   9.3500000E-02
       11   -1    0    0    0    0  0.00000000000E+00  0.00000000000E+00  2.49999997000E+02  2.49999997000E+02  0.00000000000E+00  0.0000E+00  9.0
      -11   -1    0    0    0    0  0.00000000000E+00  0.00000000000E+00 -2.49632199840E+02  2.49632199840E+02  0.00000000000E+00  0.0000E+00  9.0
  3000025    2    1    2    0    0 -1.06844856272E+02  1.95449634059E+00 -1.59371154473E+02  2.49627595895E+02  1.59671939885E+02  7.8774E-13  9.0
 -3000025    2    1    2    0    0  1.06844856272E+02 -1.95449634059E+00  1.59738951623E+02  2.50004600943E+02  1.59894103892E+02  3.4792E-12  9.0
        2    1    3    3  500    0  1.31260305340E+01  2.85541596832E+01 -1.08376382752E+00  3.14453059427E+01  3.00000000000E-03  0.0000E+00  9.0
       -1    1    3    3    0  500 -2.57258451530E+01 -2.70143169546E+01 -5.18373334634E+01  6.38647132223E+01  5.00000000000E-03  0.0000E+00  9.0
  3000022    1    3    3    0    0 -9.42450416529E+01  4.14653612445E-01 -1.06450057183E+02  1.54317576731E+02  6.00000000000E+01  0.0000E+00  9.0
       -4    1    4    4    0  504 -1.45886087467E+01  2.68842615817E+01  8.64431854715E+00  3.18193462709E+01  1.46817165330E+00  0.0000E+00  9.0
        3    1    4    4  504    0  2.89803548885E+01 -2.34199120037E+01  7.61945822557E+01  8.48174959124E+01  2.00000000000E-01  0.0000E+00  9.0
  3000022    1    4    4    0    0  9.24531101296E+01 -5.41884591917E+00  7.49000508210E+01  1.33367758760E+02  6.00000000000E+01  0.0000E+00  9.0
</event>
<event>
10    1   3.4312288E-02   4.2690000E+02  -1.0000000E+00   9.5270000E-02
       11   -1    0    0    0    0  0.00000000000E+00  0.00000000000E+00  2.49925700140E+02  2.49925700140E+02  0.00000000000E+00  0.0000E+00  9.0
      -11   -1    0    0    0    0  0.00000000000E+00  0.00000000000E+00 -1.82315939280E+02  1.82315939280E+02  0.00000000000E+00  0.0000E+00  9.0
  3000025    2    1    2    0    0 -1.27302727745E+02  5.14912450306E+01  6.73182651882E+01  2.21282995651E+02  1.59928366871E+02  1.5860E-12  9.0
 -3000025    2    1    2    0    0  1.27302727745E+02 -5.14912450306E+01  2.91495663051E-01  2.10958643770E+02  1.60144096379E+02  8.1309E-14  9.0
        4    1    3    3  500    0 -5.50229859548E+01  2.11973956291E+00  5.31159668686E+01  7.65211326601E+01  1.46817165330E+00  0.0000E+00  9.0
       -3    1    3    3    0  500 -1.00887139642E+01  5.63568135104E+01  8.45148779871E+00  5.78734846411E+01  2.00000000000E-01  0.0000E+00  9.0
  3000022    1    3    3    0    0 -6.21910278261E+01 -6.98530804275E+00  5.75081052092E+00  8.68883783493E+01  6.00000000000E+01  0.0000E+00  9.0
      -14    1    4    4    0    0  2.74464449617E+01 -3.47589138619E+01 -1.97853344853E+01  4.85072045637E+01  0.00000000000E+00  0.0000E+00  9.0
       13    1    4    4    0    0  2.12480144347E+01  4.13640041250E+01  6.64673480314E+00  4.69749849462E+01  1.05700000000E-01  0.0000E+00  9.0
  3000022    1    4    4    0    0  7.86082683488E+01 -5.80963352936E+01  1.34300953448E+01  1.15476454259E+02  6.00000000000E+01  0.0000E+00  9.0
</event>
<event>
10    1   3.4312288E-02   4.5290000E+02  -1.0000000E+00   9.4600000E-02
       11   -1    0    0    0    0  0.00000000000E+00  0.00000000000E+00  2.05604724320E+02  2.05604724320E+02  0.00000000000E+00  0.0000E+00  9.0
      -11   -1    0    0    0    0  0.00000000000E+00  0.00000000000E+00 -2.49375872800E+02  2.49375872800E+02  0.00000000000E+00  0.0000E+00  9.0
  3000025    2    1    2    0    0  1.51858527642E+02  4.09009578941E+01  4.14934256989E+00  2.24405752167E+02  1.60021322916E+02  6.0719E-14  9.0
 -3000025    2    1    2    0    0 -1.51858527642E+02 -4.09009578941E+01 -4.79204910468E+01  2.30574844955E+02  1.61661637038E+02  9.3376E-13  9.0
        4    1    3    3  500    0  3.78522697389E+01  3.43329868408E+01 -3.93938437146E+01  6.45412950010E+01  1.46817165330E+00  0.0000E+00  9.0
       -3    1    3    3    0  500  8.73390666508E+01  1.08259089886E+01  2.38003998146E+01  9.11691389682E+01  2.00000000000E-01  0.0000E+00  9.0
  3000022    1    3    3    0    0  2.66671912516E+01 -4.25793793602E+00  1.97427864699E+01  6.86953181979E+01  6.00000000000E+01  0.0000E+00  9.0
       -2    1    4    4    0  504 -9.95800432232E+01 -2.08564603058E+01 -6.85341403418E+01  1.22670719188E+02  3.00000000000E-03  0.0000E+00  9.0
        1    1    4    4  504    0 -3.56558599271E+01 -1.04300345828E+01  2.49600744654E+01  4.47563549773E+01  5.00000000000E-03  0.0000E+00  9.0
  3000022    1    4    4    0    0 -1.66226244907E+01 -9.61446300557E+00 -4.34642517034E+00  6.31477707889E+01  6.00000000000E+01  0.0000E+00  9.0
</event>
<event>
10    1   3.4312288E-02   4.6340000E+02  -1.0000000E+00   9.4340000E-02
       11   -1    0    0    0    0  0.00000000000E+00  0.00000000000E+00  2.15128275390E+02  2.15128275390E+02  0.00000000000E+00  0.0000E+00  9.0
      -11   -1    0    0    0    0  0.00000000000E+00  0.00000000000E+00 -2.49600457820E+02  2.49600457820E+02  0.00000000000E+00  0.0000E+00  9.0
  3000025    2    1    2    0    0 -1.12115421610E+02 -1.01487610064E+02 -9.00412208588E+01  2.37840066565E+02  1.59971475740E+02  2.0965E-12  9.0
 -3000025    2    1    2    0    0  1.12115421610E+02  1.01487610064E+02  5.55690384218E+01  2.26888666637E+02  1.59752766041E+02  1.7209E-13  9.0
        4    1    3    3  500    0  1.48987866346E+01 -1.52864122214E+01 -4.30042463841E+00  2.18242393192E+01  1.46817165330E+00  0.0000E+00  9.0
       -3    1    3    3    0  500 -9.23539137909E+01 -2.98408067314E+01 -8.12651174365E+01  1.26585064091E+02  2.00000000000E-01  0.0000E+00  9.0
  3000022    1    3    3    0    0 -3.46602944538E+01 -5.63603911108E+01 -4.47567878319E+00  8.94307631543E+01  6.00000000000E+01  0.0000E+00  9.0
       -4    1    4    4    0  504  1.41056912861E+01 -4.24987150093E+00  4.01974372479E+01  4.28371500422E+01  1.46817165330E+00  0.0000E+00  9.0
        3    1    4    4  504    0  4.00383496357E+01  8.71521423873E+01  2.17280598727E+01  9.83397882348E+01  2.00000000000E-01  0.0000E+00  9.0
  3000022    1    4    4    0    0  5.79713806879E+01  1.85853391774E+01 -6.35645869849E+00  8.57117283596E+01  6.00000000000E+01  0.0000E+00  9.0
</event>
<event>
10    1   3.4312288E-02   4.5690000E+02  -1.0000000E+00   9.4500000E-02
       11   -1    0    0    0    0  0.00000000000E+00  0.00000000000E+00  2.46977459950E+02  2.46977459950E+02  0.00000000000E+00  0.0000E+00  9.0
      -11   -1    0    0    0    0  0.00000000000E+00  0.00000000000E+00 -2.11268267260E+02  2.11268267260E+02  0.00000000000E+00  0.0000E+00  9.0
  3000025    2    1    2    0    0  4.72065087064E+00  1.62474207761E+02  5.18992404013E+00  2.28035188025E+02  1.59852929076E+02  1.8653E-12  9.0
 -3000025    2    1    2    0    0 -4.72065087064E+00 -1.62474207761E+02  3.05192686425E+01  2.30210539183E+02  1.60141543206E+02  1.5052E-12  9.0
       14    1    3    3    0    0 -5.47684219039E+00  5.63622344432E+01  3.75598475734E+01  6.79517433297E+01  0.00000000000E+00  0.0000E+00  9.0
      -13    1    3    3    0    0  4.15777229560E+01  1.73808041247E+01 -1.18668464363E+01  4.66007791250E+01  1.05700000000E-01  0.0000E+00  9.0
  3000022    1    3    3    0    0 -3.13802298952E+01  8.87311691927E+01 -2.05030770970E+01  1.13482665571E+02  6.00000000000E+01  0.0000E+00  9.0
      -14    1    4    4    0    0  1.36439631779E+01  3.18968124153E+00 -2.84288584430E+01  3.16943494963E+01  0.00000000000E+00  0.0000E+00  9.0
       13    1    4    4    0    0  1.58591427722E+00 -7.78128518462E+01  6.11071163128E+00  7.80686044814E+01  1.05700000000E-01  0.0000E+00  9.0
  3000022    1    4    4    0    0 -1.99505283253E+01 -8.78510371569E+01  5.28374154546E+01  1.20447585206E+02  6.00000000000E+01  0.0000E+00  9.0
</event>
<event>
10    1   3.4312288E-02   4.3290000E+02  -1.0000000E+00   9.5110000E-02
       11   -1    0    0    0    0  0.00000000000E+00  0.00000000000E+00  1.90226767220E+02  1.90226767220E+02  0.00000000000E+00  0.0000E+00  9.0
      -11   -1    0    0    0    0  0.00000000000E+00  0.00000000000E+00 -2.46329327570E+02  2.46329327570E+02  0.00000000000E+00  0.0000E+00  9.0
  3000025    2    1    2    0    0  5.02438312252E+01  1.32977319039E+02  4.86357274166E+00  2.14049175039E+02  1.59956197255E+02  2.9016E-12  9.0
 -3000025    2    1    2    0    0 -5.02438312252E+01 -1.32977319039E+02 -6.09661330990E+01  2.22506919751E+02  1.59953274419E+02  1.0787E-13  9.0
        2    1    3    3  500    0 -9.62354912377E+00  7.41083372516E+01  3.93307282576E+01  8.44485911203E+01  3.00000000000E-03  0.0000E+00  9.0
       -1    1    3    3    0  500  4.64500505798E+01  3.79660564830E+01 -1.70206264912E+01  6.23596856542E+01  5.00000000000E-03  0.0000E+00  9.0
  3000022    1    3    3    0    0  1.34173297690E+01  2.09029253037E+01 -1.74465290248E+01  6.72408982643E+01  6.00000000000E+01  0.0000E+00  9.0
       -4    1    4    4    0  504 -1.99810905845E+01 -4.56821268365E+01  3.14303495827E+01  5.89586558204E+01  1.46817165330E+00  0.0000E+00  9.0
        3    1    4    4  504    0  1.21036690928E+01 -5.15135116422E+01 -4.19429237292E+01  6.75232518336E+01  2.00000000000E-01  0.0000E+00  9.0
  3000022    1    4    4    0    0 -4.23664097337E+01 -3.57816805601E+01 -5.04535589514E+01  9.60250120973E+01  6.00000000000E+01  0.0000E+00  9.0
</event>
<event>
10    1   3.4312288E-02   5.0000000E+02  -1.0000000E+00   9.3490000E-02
       11   -1    0    0    0    0  0.00000000000E+00  0.00000000000E+00  2.49999997430E+02  2.49999997430E+02  0.00000000000E+00  0.0000E+00  9.0
      -11   -1    0    0    0    0  0.00000000000E+00  0.00000000000E+00 -2.49999999990E+02  2.49999999990E+02  0.00000000000E+00  0.0000E+00  9.0
  3000025    2    1    2    0    0  5.25414209000E+01 -1.22461373629E+02 -1.38361122567E+02  2.49995483820E+02  1.59989226986E+02  5.2452E-14  9.0
 -3000025    2    1    2    0    0 -5.25414209000E+01  1.22461373629E+02  1.38361120007E+02  2.50004513604E+02  1.60003338564E+02  5.5214E-13  9.0
       14    1    3    3    0    0 -2.90738283745E+01 -6.45450604176E+00 -6.49608691480E+01  7.14623163986E+01  0.00000000000E+00  0.0000E+00  9.0
      -13    1    3    3    0    0  2.06300928798E+01 -3.83447768974E+01 -3.94685002085E+00  4.37208353662E+01  1.05700000000E-01  0.0000E+00  9.0
  3000022    1    3    3    0    0  6.09851563936E+01 -7.76620906899E+01 -6.94534033975E+01  1.34812332055E+02  6.00000000000E+01  0.0000E+00  9.0
       -4    1    4    4    0  500  1.01061169421E+01  9.93251931396E+00  3.42299654240E+01  3.70760650623E+01  1.46817165330E+00  0.0000E+00  9.0
        3    1    4    4  500    0 -6.30802783973E+01  1.00401502210E+02  4.22247853296E+01  1.25867214416E+02  2.00000000000E-01  0.0000E+00  9.0
  3000022    1    4    4    0    0  4.32740554011E-01  1.21273521056E+01  6.19063692540E+01  8.70612341269E+01  6.00000000000E+01  0.0000E+00  9.0
</event>
<event>
10    1   3.4312288E-02   4.9860000E+02  -1.0000000E+00   9.3520000E-02
       11   -1    0    0    0    0  0.00000000000E+00  0.00000000000E+00  2.48679110510E+02  2.48679110510E+02  0.00000000000E+00  0.0000E+00  9.0
      -11   -1    0    0    0    0  0.00000000000E+00  0.00000000000E+00 -2.49903470300E+02  2.49903470300E+02  0.00000000000E+00  0.0000E+00  9.0
  3000025    2    1    2    0    0 -7.53281434887E+01 -1.03382718742E+02 -1.42492672883E+02  2.49566104326E+02  1.60052375388E+02  2.0389E-12  9.0
 -3000025    2    1    2    0    0  7.53281434887E+01  1.03382718742E+02  1.41268313093E+02  2.49016476482E+02  1.60281482209E+02  4.5618E-13  9.0
        4    1    3    3  500    0  9.12393270542E+00 -2.78523511306E+00  1.13191492557E+01  1.48755621919E+01  1.46817165330E+00  0.0000E+00  9.0
       -3    1    3    3    0  500 -3.36741035963E+01 -2.57538093454E+01 -1.09567839305E+02  1.17483425890E+02  2.00000000000E-01  0.0000E+00  9.0
  3000022    1    3    3    0    0 -5.07779725978E+01 -7.48436742835E+01 -4.42439828350E+01  1.17207116245E+02  6.00000000000E+01  0.0000E+00  9.0
       -2    1    4    4    0  504  5.04865411590E+01  5.24353856754E+01  1.06797711330E+02  1.29244387358E+02  3.00000000000E-03  0.0000E+00  9.0
        1    1    4    4  504    0  3.28690383047E+01  6.18877726104E+00 -6.48331294221E+00  3.40691651610E+01  5.00000000000E-03  0.0000E+00  9.0
  3000022    1    4    4    0    0 -8.02743597494E+00  4.47585558057E+01  4.09539147057E+01  8.57029239633E+01  6.00000000000E+01  0.0000E+00  9.0
</event>
<event>
10    1   3.4312288E-02   4.8630000E+02  -1.0000000E+00   9.3800000E-02
       11   -1    0    0    0    0  0.00000000000E+00  0.00000000000E+00  2.36700061020E+02  2.36700061020E+02  0.00000000000E+00  0.0000E+00  9.0
      -11   -1    0    0    0    0  0.00000000000E+00  0.00000000000E+00 -2.49809837460E+02  2.49809837460E+02  0.00000000000E+00  0.0000E+00  9.0
  3000025    2    1    2    0    0  1.46996762327E+02 -1.28411427098E+01 -1.14980360463E+02  2.46209841730E+02  1.60080791451E+02  4.9690E-13  9.0
 -3000025    2    1    2    0    0 -1.46996762327E+02  1.28411427098E+01  1.01870584023E+02  2.40300056746E+02  1.59979868428E+02  1.5361E-12  9.0
        4    1    3    3  500    0  2.43991052752E+01 -9.44025411016E+00  1.53412565450E+01  3.03635376114E+01  1.46817165330E+00  0.0000E+00  9.0
       -3    1    3    3    0  500  5.36688340885E+01  3.98361507042E+01 -7.55276467864E+01  1.00854985422E+02  2.00000000000E-01  0.0000E+00  9.0
  3000022    1    3    3    0    0  6.89288229634E+01 -4.32370393036E+01 -5.47939702220E+01  1.14991318696E+02  6.00000000000E+01  0.0000E+00  9.0
       -2    1    4    4    0  504 -8.12991888901E+01  3.69791508886E+01  2.71021184237E+01  9.33356338527E+01  3.00000000000E-03  0.0000E+00  9.0
        1    1    4    4  504    0 -6.04182456835E+00 -2.32212074190E+01 -1.10769525697E+01  2.64277698897E+01  5.00000000000E-03  0.0000E+00  9.0
  3000022    1    4    4    0    0 -5.96557488688E+01 -9.16800759410E-01  8.58454181694E+01  1.20536653004E+02  6.00000000000E+01  0.0000E+00  9.0
</event>
<event>
10    1   3.4312288E-02   5.0000000E+02  -1.0000000E+00   9.3490000E-02
       11   -1    0    0    0    0  0.00000000000E+00  0.00000000000E+00  2.50000000000E+02  2.50000000000E+02  0.00000000000E+00  0.0000E+00  9.0
      -11   -1    0    0    0    0  0.00000000000E+00  0.00000000000E+00 -2.49980668980E+02  2.49980668980E+02  0.00000000000E+00  0.0000E+00  9.0
  3000025    2    1    2    0    0 -9.45332316276E+00 -1.27048926222E+02 -1.43797119351E+02  2.49923439385E+02  1.59854055462E+02  8.5114E-13  9.0
 -3000025    2    1    2    0    0  9.45332316276E+00  1.27048926222E+02  1.43816450371E+02  2.50057229593E+02  1.60045780018E+02  1.3572E-12  9.0
       14    1    3    3    0    0  2.86968532861E+01  7.59964010788E+00 -1.86995912854E+01  3.50847350358E+01  0.00000000000E+00  0.0000E+00  9.0
      -13    1    3    3    0    0 -1.74212325624E+01 -5.97558726940E+01 -9.23048745884E+01  1.11330430300E+02  1.05700000000E-01  0.0000E+00  9.0
  3000022    1    3    3    0    0 -2.07289438865E+01 -7.48926936357E+01 -3.27926534762E+01  1.03508274049E+02  6.00000000000E+01  0.0000E+00  9.0
       -2    1    4    4    0  500  3.72059630335E+00  5.36580853474E+01  1.18460138589E+02  1.30099336676E+02  3.00000000000E-03  0.0000E+00  9.0
        1    1    4    4  500    0  1.80627845934E+01  4.93681485688E-02 -6.55273643380E+00  1.92147080189E+01  5.00000000000E-03  0.0000E+00  9.0
  3000022    1    4    4    0    0 -1.23300577343E+01  7.33414727266E+01  3.19090482150E+01  1.00743184898E+02  6.00000000000E+01  0.0000E+00  9.0
</event>
<event>
10    1   3.4312288E-02   4.2570000E+02  -1.0000000E+00   9.5300000E-02
       11   -1    0    0    0    0  0.00000000000E+00  0.00000000000E+00  2.18932428940E+02  2.18932428940E+02  0.00000000000E+00  0.0000E+00  9.0
      -11   -1    0    0    0    0  0.00000000000E+00  0.00000000000E+00 -2.06984010450E+02  2.06984010450E+02  0.00000000000E+00  0.0000E+00  9.0
  3000025    2    1    2    0    0  1.05050055416E+01 -3.14990872909E+01  1.42741165296E+02  2.16848399490E+02  1.59830036132E+02  9.5673E-13  9.0
 -3000025    2    1    2    0    0 -1.05050055416E+01  3.14990872909E+01 -1.30792746806E+02  2.09068039907E+02  1.59687679713E+02  3.9167E-13  9.0
        4    1    3    3  500    0 -2.97028065020E+01 -3.38368065705E+01  1.32688397451E+01  4.69617272805E+01  1.46817165330E+00  0.0000E+00  9.0
       -3    1    3    3    0  500  4.67635323831E+00  3.33493639948E+01  3.96308696959E+01  5.20066744882E+01  2.00000000000E-01  0.0000E+00  9.0
  3000022    1    3    3    0    0  3.55314588056E+01 -3.10116447152E+01  8.98414558543E+01  1.17879997721E+02  6.00000000000E+01  0.0000E+00  9.0
       -2    1    4    4    0  504 -3.60439297509E+01 -9.98726571271E+00 -4.38208194476E+01  5.76122779828E+01  3.00000000000E-03  0.0000E+00  9.0
        1    1    4    4  504    0  6.00894859377E+00  5.68354043483E+01 -2.76027176205E+01  6.34687379399E+01  5.00000000000E-03  0.0000E+00  9.0
  3000022    1    4    4    0    0  1.95299756158E+01 -1.53490513457E+01 -5.93692097375E+01  8.79870239844E+01  6.00000000000E+01  0.0000E+00  9.0
</event>
<event>
10    1   3.4312288E-02   4.9790000E+02  -1.0000000E+00   9.3540000E-02
       11   -1    0    0    0    0  0.00000000000E+00  0.00000000000E+00  2.49999999990E+02  2.49999999990E+02  0.00000000000E+00  0.0000E+00  9.0
      -11   -1    0    0    0    0  0.00000000000E+00  0.00000000000E+00 -2.47907398540E+02  2.47907398540E+02  0.00000000000E+00  0.0000E+00  9.0
  3000025    2    1    2    0    0  1.32905084429E+02 -1.36737143929E+02 -4.49752998710E+00  2.48978791218E+02  1.60029380751E+02  2.7483E-12  9.0
 -3000025    2    1    2    0    0 -1.32905084429E+02  1.36737143929E+02  6.59013143650E+00  2.48928607314E+02  1.59878746899E+02  1.2870E-12  9.0
        2    1    3    3  500    0  3.58221376220E+01 -7.79848242257E+01 -1.32956314940E+01  8.68425712376E+01  3.00000000000E-03  0.0000E+00  9.0
       -1    1    3    3    0  500  7.22551826383E+01 -5.22042053971E+00 -1.64254739427E+01  7.42823022526E+01  5.00000000000E-03  0.0000E+00  9.0
  3000022    1    3    3    0    0  2.48277641683E+01 -5.35318991636E+01  2.52235754496E+01  8.78539177278E+01  6.00000000000E+01  0.0000E+00  9.0
       -2    1    4    4    0  504 -4.45523215057E+01  2.30533736993E+01  2.60626264792E+01  5.65298850030E+01  3.00000000000E-03  0.0000E+00  9.0
        1    1    4    4  504    0 -2.92536952667E+01  1.19786390931E+01 -4.78377899032E+01  5.73386488252E+01  5.00000000000E-03  0.0000E+00  9.0
  3000022    1    4    4    0    0 -5.90990676570E+01  1.01705131137E+02  2.83652948605E+01  1.35060073486E+02  6.00000000000E+01  0.0000E+00  9.0
</event>
<event>
10    1   3.4312288E-02   4.9380000E+02  -1.0000000E+00   9.3630000E-02
       11   -1    0    0    0    0  0.00000000000E+00  0.00000000000E+00  2.50000000000E+02  2.50000000000E+02  0.00000000000E+00  0.0000E+00  9.0
      -11   -1    0    0    0    0  0.00000000000E+00  0.00000000000E+00 -2.43796489780E+02  2.43796489780E+02  0.00000000000E+00  0.0000E+00  9.0
  3000025    2    1    2    0    0  1.49301866214E+02  9.21091111696E+01  7.04955874863E+01  2.47801228237E+02  1.60189529137E+02  1.5201E-12  9.0
 -3000025    2    1    2    0    0 -1.49301866214E+02 -9.21091111696E+01 -6.42920772663E+01  2.45995261543E+02  1.60015817614E+02  1.9383E-14  9.0
        4    1    3    3  500    0  3.08772033989E+01  5.44211117086E+01  7.63476894416E+00  6.30516004093E+01  1.46817165330E+00  0.0000E+00  9.0
       -3    1    3    3    0  500  1.30097737424E+01 -3.14968740921E+01  1.31137660623E+01  3.65146292702E+01  2.00000000000E-01  0.0000E+00  9.0
  3000022    1    3    3    0    0  1.05414889072E+02  6.91848735530E+01  4.97470524798E+01  1.48234998556E+02  6.00000000000E+01  0.0000E+00  9.0
       -2    1    4    4    0  504 -3.12354074867E+01 -8.82277192081E+01 -4.65152729813E+01  1.04515318241E+02  3.00000000000E-03  0.0000E+00  9.0
        1    1    4    4  504    0 -3.52504736333E+01  9.65684333641E+00 -1.06773394554E+01  3.80769762119E+01  5.00000000000E-03  0.0000E+00  9.0
  3000022    1    4    4    0    0 -8.28159850943E+01 -1.35382352979E+01 -7.09946483022E+00  1.03402967090E+02  6.00000000000E+01  0.0000E+00  9.0
</event>
<event>
10    1   3.4312288E-02   4.9300000E+02  -1.0000000E+00   9.3650000E-02
       11   -1    0    0    0    0  0.00000000000E+00  0.00000000000E+00  2.44517428410E+02  2.44517428410E+02  0.00000000000E+00  0.0000E+00  9.0
      -11   -1    0    0    0    0  0.00000000000E+00  0.00000000000E+00 -2.48461610840E+02  2.48461610840E+02  0.00000000000E+00  0.0000E+00  9.0
  3000025    2    1    2    0    0 -1.63942117647E+02 -9.02450116560E+01 -1.24962987268E+01  2.46621389984E+02  1.60139852779E+02  6.7026E-14  9.0
 -3000025    2    1    2    0    0  1.63942117647E+02  9.02450116560E+01  8.55211629656E+00  2.46357649252E+02  1.59993039175E+02  1.5200E-12  9.0
        2    1    3    3  500    0 -4.16099895014E+01 -1.53713125023E+01  3.93246761901E+01  5.92798333400E+01  3.00000000000E-03  0.0000E+00  9.0
       -1    1    3    3    0  500 -1.08900841598E+01 -4.49856849695E+01 -3.08222658322E+01  5.56086133726E+01  5.00000000000E-03  0.0000E+00  9.0
  3000022    1    3    3    0    0 -1.11442043987E+02 -2.98880141851E+01 -2.09987090847E+01  1.31732943272E+02  6.00000000000E+01  0.0000E+00  9.0
       -4    1    4    4    0  504  3.77830510287E+01  7.46641195404E+01  5.12879523263E+00  8.38495662501E+01  1.46817165330E+00  0.0000E+00  9.0
        3    1    4    4  504    0  7.81681826866E+00 -1.84775729216E+01  1.49760445687E+01  2.50368779971E+01  2.00000000000E-01  0.0000E+00  9.0
  3000022    1    4    4    0    0  1.18342248350E+02  3.40584650383E+01 -1.15527235044E+01  1.37471205006E+02  6.00000000000E+01  0.0000E+00  9.0
</event>
<event>
10    1   3.4312288E-02   3.8750000E+02  -1.0000000E+00   9.6400000E-02
       11   -1    0    0    0    0  0.00000000000E+00  0.00000000000E+00  1.50163896850E+02  1.50163896850E+02  0.00000000000E+00  0.0000E+00  9.0
      -11   -1    0    0    0    0  0.00000000000E+00  0.00000000000E+00 -2.49963472640E+02  2.49963472640E+02  0.00000000000E+00  0.0000E+00  9.0
  3000025    2    1    2    0    0  2.33083232714E+01  1.00685656519E+02 -1.40753133625E+01  1.91267725844E+02  1.60325759443E+02  2.5625E-13  9.0
 -3000025    2    1    2    0    0 -2.33083232714E+01 -1.00685656519E+02 -8.57242624215E+01  2.08859643652E+02  1.59977567854E+02  1.0186E-12  9.0
        2    1    3    3  500    0  1.54273112469E+01 -1.89705522239E+01 -1.49679323416E+01  2.86691958654E+01  3.00000000000E-03  0.0000E+00  9.0
       -1    1    3    3    0  500  1.26029783467E+01  5.58959961822E+01  3.65303034913E+01  6.79533704136E+01  5.00000000000E-03  0.0000E+00  9.0
  3000022    1    3    3    0    0 -4.72196632216E+00  6.37602125610E+01 -3.56376845122E+01  9.46451595654E+01  6.00000000000E+01  0.0000E+00  9.0
      -14    1    4    4    0    0 -3.55250586204E+01 -6.40354913287E+01 -1.49213467071E+00  7.32447978055E+01  0.00000000000E+00  0.0000E+00  9.0
       13    1    4    4    0    0  1.61260642629E+01  1.33343777801E+01 -3.31227333168E-01  2.09278872185E+01  1.05700000000E-01  0.0000E+00  9.0
  3000022    1    4    4    0    0 -3.90932891386E+00 -4.99845429706E+01 -8.39009004176E+01  1.14686958628E+02  6.00000000000E+01  0.0000E+00  9.0
</event>
<event>
10    1   3.4312288E-02   5.0000000E+02  -1.0000000E+00   9.3490000E-02
       11   -1    0    0    0    0  0.00000000000E+00  0.00000000000E+00  2.50000000000E+02  2.50000000000E+02  0.00000000000E+00  0.0000E+00  9.0
      -11   -1    0    0    0    0  0.00000000000E+00  0.00000000000E+00 -2.49997061620E+02  2.49997061620E+02  0.00000000000E+00  0.0000E+00  9.0
  3000025    2    1    2    0    0  1.32218530899E+01 -1.75501301575E+02 -7.70019563968E+01  2.49953727039E+02  1.59912601499E+02  4.5246E-12  9.0
 -3000025    2    1    2    0    0 -1.32218530899E+01  1.75501301575E+02  7.70048947788E+01  2.50043334582E+02  1.60051213976E+02  3.0721E-13  9.0
        4    1    3    3  500    0 -6.47021613950E+00 -1.06459278644E+02 -7.56265854961E+01  1.30755411621E+02  1.46817165330E+00  0.0000E+00  9.0
       -3    1    3    3    0  500  3.40191420131E+01 -3.19901198317E+01  4.96076599150E+00  4.69608239853E+01  2.00000000000E-01  0.0000E+00  9.0
  3000022    1    3    3    0    0 -1.43270727837E+01 -3.70519030988E+01 -6.33613689215E+00  7.22374914328E+01  6.00000000000E+01  0.0000E+00  9.0
       -4    1    4    4    0  504  1.39516740502E+01  5.55090539181E+00 -1.86756429166E+01  2.40082678639E+01  1.46817165330E+00  0.0000E+00  9.0
        3    1    4    4  504    0 -3.71967851671E+01  1.03202454577E+02  2.81107686533E+01  1.13245762710E+02  2.00000000000E-01  0.0000E+00  9.0
  3000022    1    4    4    0    0  1.00232580269E+01  6.67479416060E+01  6.75697690427E+01  1.12789304008E+02  6.00000000000E+01  0.0000E+00  9.0
</event>
<event>
10    1   3.4312288E-02   4.9960000E+02  -1.0000000E+00   9.3500000E-02
       11   -1    0    0    0    0  0.00000000000E+00  0.00000000000E+00  2.49587681650E+02  2.49587681650E+02  0.00000000000E+00  0.0000E+00  9.0
      -11   -1    0    0    0    0  0.00000000000E+00  0.00000000000E+00 -2.50000000000E+02  2.50000000000E+02  0.00000000000E+00  0.0000E+00  9.0
  3000025    2    1    2    0    0 -1.11649388719E+02  1.56082656147E+02  4.41422521073E+00  2.49736924548E+02  1.59755014154E+02  2.4963E-13  9.0
 -3000025    2    1    2    0    0  1.11649388719E+02 -1.56082656147E+02 -4.82654356293E+00  2.49850757093E+02  1.59920992199E+02  3.0831E-12  9.0
        4    1    3    3  500    0 -6.22832158697E+01  1.08989322627E+02 -2.56493091395E+01  1.28132408130E+02  1.46817165330E+00  0.0000E+00  9.0
       -3    1    3    3    0  500 -1.78120544780E+01  2.95658371074E+01  3.77635928574E+01  5.11618701191E+01  2.00000000000E-01  0.0000E+00  9.0
  3000022    1    3    3    0    0 -3.15541183710E+01  1.75274964127E+01 -7.70005850720E+00  7.04426462996E+01  6.00000000000E+01  0.0000E+00  9.0
       -2    1    4    4    0  504  8.53830765666E+01 -8.72789063187E+01  3.51036319281E+01  1.27043859496E+02  3.00000000000E-03  0.0000E+00  9.0
        1    1    4    4  504    0  2.25778913213E+01 -2.05264270461E+01 -3.36914618992E+01  4.54555828661E+01  5.00000000000E-03  0.0000E+00  9.0
  3000022    1    4    4    0    0  3.68842083098E+00 -4.82773227822E+01 -6.23871359180E+00  7.73513147304E+01  6.00000000000E+01  0.0000E+00  9.0
</event>
<event>
10    1   3.4312288E-02   5.0000000E+02  -1.0000000E+00   9.3490000E-02
       11   -1    0    0    0    0  0.00000000000E+00  0.00000000000E+00  2.50000000000E+02  2.50000000000E+02  0.00000000000E+00  0.0000E+00  9.0
      -11   -1    0    0    0    0  0.00000000000E+00  0.00000000000E+00 -2.49985132060E+02  2.49985132060E+02  0.00000000000E+00  0.0000E+00  9.0
  3000025    2    1    2    0    0 -5.44179289394E+01  1.27313260756E+02  1.33193655680E+02  2.50007470293E+02  1.59978773388E+02  5.3499E-13  9.0
 -3000025    2    1    2    0    0  5.44179289394E+01 -1.27313260756E+02 -1.33178787740E+02  2.49977661757E+02  1.59944567021E+02  1.4063E-12  9.0
        4    1    3    3  500    0 -3.45520281255E+01  6.60514281765E+01  8.48300997444E+01  1.12937749058E+02  1.46817165330E+00  0.0000E+00  9.0
       -3    1    3    3    0  500 -2.94591730932E+01 -2.83297697349E+00 -9.96499933692E+00  3.12283500949E+01  2.00000000000E-01  0.0000E+00  9.0
  3000022    1    3    3    0    0  9.59327227821E+00  6.40948095528E+01  5.83285552724E+01  1.05841371140E+02  6.00000000000E+01  0.0000E+00  9.0
       -4    1    4    4    0  504  4.79049657832E+01  8.27532406879E+00 -5.73096632967E+01  7.51659482101E+01  1.46817165330E+00  0.0000E+00  9.0
        3    1    4    4  504    0 -1.09706523975E+01 -4.33353682090E+01 -3.23765425906E+01  5.51959225120E+01  2.00000000000E-01  0.0000E+00  9.0
  3000022    1    4    4    0    0  1.74836155537E+01 -9.22532166156E+01 -4.34925818521E+01  1.19615791035E+02  6.00000000000E+01  0.0000E+00  9.0
</event>
<event>
10    1   3.4312288E-02   4.8100000E+02  -1.0000000E+00   9.3920000E-02
       11   -1    0    0    0    0  0.00000000000E+00  0.00000000000E+00  2.31426490160E+02  2.31426490160E+02  0.00000000000E+00  0.0000E+00  9.0
      -11   -1    0    0    0    0  0.00000000000E+00  0.00000000000E+00 -2.49966998060E+02  2.49966998060E+02  0.00000000000E+00  0.0000E+00  9.0
  3000025    2    1    2    0    0 -1.58011147715E+02 -8.52968919727E+01 -3.32078070825E+00  2.40384438600E+02  1.59782878164E+02  1.2426E-12  9.0
 -3000025    2    1    2    0    0  1.58011147715E+02  8.52968919727E+01 -1.52197271970E+01  2.41009049622E+02  1.60033244426E+02  2.3897E-12  9.0
        2    1    3    3  500    0  6.48126117139E+00 -1.70405166421E+01  2.29595436130E+01  2.93176841807E+01  3.00000000000E-03  0.0000E+00  9.0
       -1    1    3    3    0  500 -1.14213991737E+02 -4.73779466199E+01  6.14056457779E+00  1.23803119076E+02  5.00000000000E-03  0.0000E+00  9.0
  3000022    1    3    3    0    0 -5.02784171490E+01 -2.08784287107E+01 -3.24208888992E+01  8.72636353440E+01  6.00000000000E+01  0.0000E+00  9.0
       -2    1    4    4    0  504 -1.26710561921E+01 -1.73144885801E+01  1.39424466824E+01  2.55878683815E+01  3.00000000000E-03  0.0000E+00  9.0
        1    1    4    4  504    0  5.92348223356E+01  2.80287008715E+01 -1.86502513710E+01  6.81337225673E+01  5.00000000000E-03  0.0000E+00  9.0
  3000022    1    4    4    0    0  1.11447381572E+02  7.45826796818E+01 -1.05119225076E+01  1.47287458673E+02  6.00000000000E+01  0.0000E+00  9.0
</event>
<event>
10    1   3.4312288E-02   4.9790000E+02  -1.0000000E+00   9.3540000E-02
       11   -1    0    0    0    0  0.00000000000E+00  0.00000000000E+00  2.48157283390E+02  2.48157283390E+02  0.00000000000E+00  0.0000E+00  9.0
      -11   -1    0    0    0    0  0.00000000000E+00  0.00000000000E+00 -2.49761600690E+02  2.49761600690E+02  0.00000000000E+00  0.0000E+00  9.0
  3000025    2    1    2    0    0  1.37784413048E+02  6.52722455223E+01  1.13310998977E+02  2.48881814620E+02  1.60803496991E+02  1.6500E-13  9.0
 -3000025    2    1    2    0    0 -1.37784413048E+02 -6.52722455223E+01 -1.14915316277E+02  2.49037069456E+02  1.59902850298E+02  4.7077E-13  9.0
        4    1    3    3  500    0  8.46974500307E+01  2.18329536865E+01  2.07948736426E+00  8.75032325351E+01  1.46817165330E+00  0.0000E+00  9.0
       -3    1    3    3    0  500  3.05193348258E-01  3.66905495092E+01  3.31601315744E+01  4.94562826372E+01  2.00000000000E-01  0.0000E+00  9.0
  3000022    1    3    3    0    0  5.27817696679E+01  6.74874232616E+00  7.80713800389E+01  1.11922299447E+02  6.00000000000E+01  0.0000E+00  9.0
       -4    1    4    4    0  504 -3.48471214720E+01 -4.70714836111E+01 -6.61830650593E+01  8.83877823733E+01  1.46817165330E+00  0.0000E+00  9.0
        3    1    4    4  504    0 -7.86639262812E+01  1.51627173975E+01 -2.19705184072E+01  8.30702412174E+01  2.00000000000E-01  0.0000E+00  9.0
  3000022    1    4    4    0    0 -2.42733652949E+01 -3.33634793088E+01 -2.67617328122E+01  7.75790458658E+01  6.00000000000E+01  0.0000E+00  9.0
</event>
<event>
10    1   3.4312288E-02   4.8920000E+02  -1.0000000E+00   9.3730000E-02
       11   -1    0    0    0    0  0.00000000000E+00  0.00000000000E+00  2.48923453850E+02  2.48923453850E+02  0.00000000000E+00  0.0000E+00  9.0
      -11   -1    0    0    0    0  0.00000000000E+00  0.00000000000E+00 -2.40343799510E+02  2.40343799510E+02  0.00000000000E+00  0.0000E+00  9.0
  3000025    2    1    2    0    0 -5.36423830446E+01  1.64348943276E+02 -6.08604199849E+01  2.43352372981E+02  1.60088432749E+02  1.2961E-12  9.0
 -3000025    2    1    2    0    0  5.36423830446E+01 -1.64348943276E+02  6.94400743229E+01  2.45914880377E+02  1.60512068251E+02  1.4609E-12  9.0
       14    1    3    3    0    0 -2.90701112958E+01  1.47003131129E+01  3.49248686095E+00  3.27622960251E+01  0.00000000000E+00  0.0000E+00  9.0
      -13    1    3    3    0    0 -1.92038777665E+01  1.27513076756E+02 -6.89872243464E+01  1.46245074995E+02  1.05700000000E-01  0.0000E+00  9.0
  3000022    1    3    3    0    0 -5.36839398252E+00  2.21355534071E+01  4.63431749953E+00  6.43450019603E+01  6.00000000000E+01  0.0000E+00  9.0
       -4    1    4    4    0  500  4.07357928766E+01 -2.70954303953E+01 -1.82898932370E+00  4.89802807213E+01  1.46817165330E+00  0.0000E+00  9.0
        3    1    4    4  500    0 -1.30861876182E+00  1.38682350418E+01  2.27180258926E+01  2.66493738518E+01  2.00000000000E-01  0.0000E+00  9.0
  3000022    1    4    4    0    0  1.42152089299E+01 -1.51121747923E+02  4.85510377550E+01  1.70285225804E+02  6.00000000000E+01  0.0000E+00  9.0
</event>
<event>
10    1   3.4312288E-02   4.5660000E+02  -1.0000000E+00   9.4510000E-02
       11   -1    0    0    0    0  0.00000000000E+00  0.00000000000E+00  2.49952662550E+02  2.49952662550E+02  0.00000000000E+00  0.0000E+00  9.0
      -11   -1    0    0    0    0  0.00000000000E+00  0.00000000000E+00 -2.08506083540E+02  2.08506083540E+02  0.00000000000E+00  0.0000E+00  9.0
  3000025    2    1    2    0    0 -1.36284815912E+02  2.38227195719E+01  1.07093184865E+02  2.36975091221E+02  1.59834822859E+02  7.6091E-12  9.0
 -3000025    2    1    2    0    0  1.36284815912E+02 -2.38227195719E+01 -6.56466058585E+01  2.21483654874E+02  1.60013935330E+02  1.6204E-15  9.0
        2    1    3    3  500    0 -4.22254393739E+01 -1.46303618208E+01  8.78802130988E+01  9.85898933999E+01  3.00000000000E-03  0.0000E+00  9.0
       -1    1    3    3    0  500  1.37048115953E+00  1.23513019425E+01 -1.32945161776E+01  1.81982708981E+01  5.00000000000E-03  0.0000E+00  9.0
  3000022    1    3    3    0    0 -9.54298576976E+01  2.61017794500E+01  3.25074879443E+01  1.20186926923E+02  6.00000000000E+01  0.0000E+00  9.0
       -2    1    4    4    0  504  6.05048641803E+01 -4.48291592450E+01 -4.79591282408E+01  8.92780493666E+01  3.00000000000E-03  0.0000E+00  9.0
        1    1    4    4  504    0  5.38442697615E+01  1.62472696482E+01  1.77747441567E+01  5.89840716805E+01  5.00000000000E-03  0.0000E+00  9.0
  3000022    1    4    4    0    0  2.19356819699E+01  4.75917002489E+00 -3.54622217733E+01  7.32215338266E+01  6.00000000000E+01  0.0000E+00  9.0
</event>
<event>
10    1   3.4312288E-02   5.0000000E+02  -1.0000000E+00   9.3490000E-02
       11   -1    0    0    0    0  0.00000000000E+00  0.00000000000E+00  2.49994881950E+02  2.49994881950E+02  0.00000000000E+00  0.0000E+00  9.0
      -11   -1    0    0    0    0  0.00000000000E+00  0.00000000000E+00 -2.49997574480E+02  2.49997574480E+02  0.00000000000E+00  0.0000E+00  9.0
  3000025    2    1    2    0    0 -1.00355869476E+02 -1.49339215754E+02 -6.72755927869E+01  2.49980670070E+02  1.59971335319E+02  2.4109E-13  9.0
 -3000025    2    1    2    0    0  1.00355869476E+02  1.49339215754E+02  6.72729002539E+01  2.50011786356E+02  1.60021087073E+02  1.1479E-12  9.0
        4    1    3    3  500    0  8.63572758388E+00 -3.53647197459E+01 -3.17779146826E+01  4.83449126919E+01  1.46817165330E+00  0.0000E+00  9.0
       -3    1    3    3    0  500 -5.95149926233E+01 -6.78222353736E+01  2.40204140138E+01  9.33751050732E+01  2.00000000000E-01  0.0000E+00  9.0
  3000022    1    3    3    0    0 -4.94766044358E+01 -4.61522606342E+01 -5.95180921170E+01  1.08260652304E+02  6.00000000000E+01  0.0000E+00  9.0
       -4    1    4    4    0  504 -5.28529633994E+00  2.65922912991E+01  5.37379055631E+01  6.02079922955E+01  1.46817165330E+00  0.0000E+00  9.0
        3    1    4    4  504    0  7.17642506393E+01  6.32964063362E+01  2.26765296312E+01  9.83402650038E+01  2.00000000000E-01  0.0000E+00  9.0
  3000022    1    4    4    0    0  3.38769151776E+01  5.94505181197E+01 -9.14153493976E+00  9.14635290578E+01  6.00000000000E+01  0.0000E+00  9.0
</event>
<event>
10    1   3.4312288E-02   4.9680000E+02  -1.0000000E+00   9.3560000E-02
       11   -1    0    0    0    0  0.00000000000E+00  0.00000000000E+00  2.49674913080E+02  2.49674913080E+02  0.00000000000E+00  0.0000E+00  9.0
      -11   -1    0    0    0    0  0.00000000000E+00  0.00000000000E+00 -2.47115835430E+02  2.47115835430E+02  0.00000000000E+00  0.0000E+00  9.0
  3000025    2    1    2    0    0 -7.95200055643E+01  1.71477395466E+02  2.10103910315E+01  2.48490739923E+02  1.59932119525E+02  5.7127E-12  9.0
 -3000025    2    1    2    0    0  7.95200055643E+01 -1.71477395466E+02 -1.84513133745E+01  2.48300008580E+02  1.59951601602E+02  3.1631E-13  9.0
        2    1    3    3  500    0  2.18828017800E+01  7.31072498733E+00 -8.09605912412E+00  2.44509692226E+01  3.00000000000E-03  0.0000E+00  9.0
       -1    1    3    3    0  500 -3.47715796043E+01  9.64922275581E+01  4.22688278951E+01  1.10934514755E+02  5.00000000000E-03  0.0000E+00  9.0
  3000022    1    3    3    0    0 -6.66312277406E+01  6.76744429204E+01 -1.31623777395E+01  1.13105255946E+02  6.00000000000E+01  0.0000E+00  9.0
       -4    1    4    4    0  504  6.81173442161E+01 -1.35838552639E+01 -7.17802524687E+00  6.98439208617E+01  1.46817165330E+00  0.0000E+00  9.0
        3    1    4    4  504    0 -9.47542811663E+00 -4.07513450482E+01 -1.67898686139E+01  4.50820978804E+01  2.00000000000E-01  0.0000E+00  9.0
  3000022    1    4    4    0    0  2.08780894648E+01 -1.17142195153E+02  5.51658048550E+00  1.33373989838E+02  6.00000000000E+01  0.0000E+00  9.0
</event>
<event>
10    1   3.4312288E-02   4.7470000E+02  -1.0000000E+00   9.4070000E-02
       11   -1    0    0    0    0  0.00000000000E+00  0.00000000000E+00  2.25314259490E+02  2.25314259490E+02  0.00000000000E+00  0.0000E+00  9.0
      -11   -1    0    0    0    0  0.00000000000E+00  0.00000000000E+00 -2.50000000000E+02  2.50000000000E+02  0.00000000000E+00  0.0000E+00  9.0
  3000025    2    1    2    0    0  1.65925215873E+02  4.27065967587E+01  2.42577357299E+01  2.35672964266E+02  1.59994617640E+02  1.3956E-12  9.0
 -3000025    2    1    2    0    0 -1.65925215873E+02 -4.27065967587E+01 -4.89434762379E+01  2.39641295221E+02  1.60241866688E+02  7.1927E-13  9.0
        2    1    3    3  500    0  1.00979210345E+02  3.14765127229E+01 -3.28750202773E+01  1.10762533117E+02  3.00000000000E-03  0.0000E+00  9.0
       -1    1    3    3    0  500  3.65302257508E+01  1.66638467471E+01  3.87713481825E+01  5.58153979356E+01  5.00000000000E-03  0.0000E+00  9.0
  3000022    1    3    3    0    0  2.84157797775E+01 -5.43376271066E+00  1.83614078243E+01  6.90950332140E+01  6.00000000000E+01  0.0000E+00  9.0
       -4    1    4    4    0  504 -6.89502290161E+01  9.72535913438E+00 -1.54161960424E+01  7.13339422722E+01  1.46817165330E+00  0.0000E+00  9.0
        3    1    4    4  504    0  1.41506534759E+01 -2.15726773672E+01 -2.81596277436E+01  3.81919629928E+01  2.00000000000E-01  0.0000E+00  9.0
  3000022    1    4    4    0    0 -1.11125640335E+02 -3.08592785265E+01 -5.36765245183E+00  1.30115389958E+02  6.00000000000E+01  0.0000E+00  9.0
</event>
<event>
10    1   3.4312288E-02   4.7480000E+02  -1.0000000E+00   9.4070000E-02
       11   -1    0    0    0    0  0.00000000000E+00  0.00000000000E+00  2.25474017200E+02  2.25474017200E+02  0.00000000000E+00  0.0000E+00  9.0
      -11   -1    0    0    0    0  0.00000000000E+00  0.00000000000E+00 -2.49999418170E+02  2.49999418170E+02  0.00000000000E+00  0.0000E+00  9.0
  3000025    2    1    2    0    0 -4.82983417332E+01 -1.08386233927E+02  1.17472274739E+02  2.31004138254E+02  1.59633552359E+02  6.3928E-13  9.0
 -3000025    2    1    2    0    0  4.82983417332E+01  1.08386233927E+02 -1.41997675699E+02  2.44469297112E+02  1.59754786492E+02  3.2908E-12  9.0
        4    1    3    3  500    0 -3.86949682521E+01  3.40470915087E+00  5.63944444252E+01  6.84936603085E+01  1.46817165330E+00  0.0000E+00  9.0
       -3    1    3    3    0  500  1.21908926215E+01 -5.84966706918E+01  5.13474827699E+01  7.87850387557E+01  2.00000000000E-01  0.0000E+00  9.0
  3000022    1    3    3    0    0 -2.17942661023E+01 -5.32942723861E+01  9.73034754381E+00  8.37254391892E+01  6.00000000000E+01  0.0000E+00  9.0
      -14    1    4    4    0    0  4.50990620849E+01  3.57777052585E+01 -2.45837298594E+01  6.25965603552E+01  0.00000000000E+00  0.0000E+00  9.0
       13    1    4    4    0    0 -1.55294397512E+01  5.92041364127E+01 -9.65241743042E+01  1.14294447218E+02  1.05700000000E-01  0.0000E+00  9.0
  3000022    1    4    4    0    0  1.87287194003E+01  1.34043922553E+01 -2.08897715365E+01  6.75782895385E+01  6.00000000000E+01  0.0000E+00  9.0
</event>
<event>
10    1   3.4312288E-02   4.9810000E+02  -1.0000000E+00   9.3530000E-02
       11   -1    0    0    0    0  0.00000000000E+00  0.00000000000E+00  2.49893240800E+02  2.49893240800E+02  0.00000000000E+00  0.0000E+00  9.0
      -11   -1    0    0    0    0  0.00000000000E+00  0.00000000000E+00 -2.48233303100E+02  2.48233303100E+02  0.00000000000E+00  0.0000E+00  9.0
  3000025    2    1    2    0    0  6.77041436619E+01  1.17882649925E+02 -1.32985543707E+02  2.48519287015E+02  1.59989096382E+02  9.7053E-13  9.0
 -3000025    2    1    2    0    0 -6.77041436619E+01 -1.17882649925E+02  1.34645481417E+02  2.49607256884E+02  1.60294125909E+02  1.8496E-12  9.0
        4    1    3    3  500    0  3.51280271626E+01  4.11337335893E+01 -5.18869978212E+01  7.49691830170E+01  1.46817165330E+00  0.0000E+00  9.0
       -3    1    3    3    0  500 -3.80686022672E+01  1.20843550368E+01 -1.52612959468E+01  4.27574235567E+01  2.00000000000E-01  0.0000E+00  9.0
  3000022    1    3    3    0    0  7.06447187653E+01  6.46645612982E+01 -6.58372499385E+01  1.30792680440E+02  6.00000000000E+01  0.0000E+00  9.0
       -2    1    4    4    0  504  1.60805404271E+01  3.98139555201E+00  2.24972954244E+01  2.79385683488E+01  3.00000000000E-03  0.0000E+00  9.0
        1    1    4    4  504    0 -6.26726893072E+01 -1.02080259506E+02  9.50054887518E+01  1.52886520936E+02  5.00000000000E-03  0.0000E+00  9.0
  3000022    1    4    4    0    0 -2.11119947823E+01 -1.97837859695E+01  1.71426972414E+01  6.87821675995E+01  6.00000000000E+01  0.0000E+00  9.0
</event>
<event>
10    1   3.4312288E-02   3.9780000E+02  -1.0000000E+00   9.6090000E-02
       11   -1    0    0    0    0  0.00000000000E+00  0.00000000000E+00  2.48379486130E+02  2.48379486130E+02  0.00000000000E+00  0.0000E+00  9.0
      -11   -1    0    0    0    0  0.00000000000E+00  0.00000000000E+00 -1.59285988050E+02  1.59285988050E+02  0.00000000000E+00  0.0000E+00  9.0
  3000025    2    1    2    0    0 -4.92449660528E+01 -8.81841623201E+01  1.07297268212E+02  2.17490769669E+02  1.59962551742E+02  5.1343E-14  9.0
 -3000025    2    1    2    0    0  4.92449660528E+01  8.81841623201E+01 -1.82037701402E+01  1.90174704503E+02  1.60104740154E+02  1.0568E-12  9.0
        2    1    3    3  500    0 -2.08621015837E+01  1.77539317980E+01 -1.54087004692E+01  3.14301994255E+01  3.00000000000E-03  0.0000E+00  9.0
       -1    1    3    3    0  500 -3.00811234171E+01 -4.65271740639E+01  4.78704315311E+01  7.32204216895E+01  5.00000000000E-03  0.0000E+00  9.0
  3000022    1    3    3    0    0  1.69825894802E+00 -5.94109200531E+01  7.48355371502E+01  1.12840148553E+02  6.00000000000E+01  0.0000E+00  9.0
       -2    1    4    4    0  504  8.29403379601E+00  8.60549550578E+00 -4.14622900126E+01  4.31505162379E+01  3.00000000000E-03  0.0000E+00  9.0
        1    1    4    4  504    0  3.47319844215E+01  7.67007989390E+01  7.02700159330E+00  8.44908401907E+01  5.00000000000E-03  0.0000E+00  9.0
  3000022    1    4    4    0    0  6.21894783566E+00  2.87786787535E+00  1.62315182801E+01  6.25333480742E+01  6.00000000000E+01  0.0000E+00  9.0
</event>
<event>
10    1   3.4312288E-02   4.6430000E+02  -1.0000000E+00   9.4320000E-02
       11   -1    0    0    0    0  0.00000000000E+00  0.00000000000E+00  2.27092703930E+02  2.27092703930E+02  0.00000000000E+00  0.0000E+00  9.0
      -11   -1    0    0    0    0  0.00000000000E+00  0.00000000000E+00 -2.37333043790E+02  2.37333043790E+02  0.00000000000E+00  0.0000E+00  9.0
  3000025    2    1    2    0    0  1.56197648890E+02 -4.26656809945E+01  4.05479946813E+01  2.31190348744E+02  1.59958655990E+02  4.9102E-13  9.0
 -3000025    2    1    2    0    0 -1.56197648890E+02  4.26656809945E+01 -5.07883345423E+01  2.33235398972E+02  1.60003845436E+02  7.8308E-13  9.0
        2    1    3    3  500    0 -1.45134159110E+01  1.29413457037E+01  4.19089449618E+00  1.98917388809E+01  3.00000000000E-03  0.0000E+00  9.0
       -1    1    3    3    0  500  9.25345214333E+01 -4.42434444008E+00  3.82756873468E+01  1.00235925433E+02  5.00000000000E-03  0.0000E+00  9.0
  3000022    1    3    3    0    0  7.81765433684E+01 -5.11826822582E+01 -1.91858716130E+00  1.11062684430E+02  6.00000000000E+01  0.0000E+00  9.0
       -4    1    4    4    0  504 -4.92059823534E+00  1.63607886875E+01  2.46770835071E+01  3.00499862212E+01  1.46817165330E+00  0.0000E+00  9.0
        3    1    4    4  504    0 -2.98621504039E+01 -1.13247476747E+01 -5.14941384095E+01  6.05944240601E+01  2.00000000000E-01  0.0000E+00  9.0
  3000022    1    4    4    0    0 -1.21414900251E+02  3.76296399821E+01 -2.39712796404E+01  1.42590988691E+02  6.00000000000E+01  0.0000E+00  9.0
</event>
<event>
10    1   3.4312288E-02   4.8900000E+02  -1.0000000E+00   9.3740000E-02
       11   -1    0    0    0    0  0.00000000000E+00  0.00000000000E+00  2.50000000000E+02  2.50000000000E+02  0.00000000000E+00  0.0000E+00  9.0
      -11   -1    0    0    0    0  0.00000000000E+00  0.00000000000E+00 -2.39163757390E+02  2.39163757390E+02  0.00000000000E+00  0.0000E+00  9.0
  3000025    2    1    2    0    0 -1.64908786707E+02 -1.91716172054E+01 -7.69483617088E+01  2.42453974114E+02  1.59061058574E+02  6.2266E-13  9.0
 -3000025    2    1    2    0    0  1.64908786707E+02  1.91716172054E+01  8.77846043178E+01  2.46709783277E+02  1.59991004654E+02  2.7394E-13  9.0
        4    1    3    3  500    0 -2.55593655958E+01 -3.32419259568E+01 -4.74219515382E+01  6.33190636907E+01  1.46817165330E+00  0.0000E+00  9.0
       -3    1    3    3    0  500 -1.07148951968E+02  5.17563237851E+00 -2.59536420996E+01  1.10369002064E+02  2.00000000000E-01  0.0000E+00  9.0
  3000022    1    3    3    0    0 -3.22004691426E+01  8.89467637280E+00 -3.57276807131E+00  6.87659083592E+01  6.00000000000E+01  0.0000E+00  9.0
      -14    1    4    4    0    0  8.55827154507E+01  3.61241056810E+00  1.03689491857E+01  8.62842152496E+01  0.00000000000E+00  0.0000E+00  9.0
       13    1    4    4    0    0  1.49578371531E+01 -2.59601591016E+01  5.17512691733E+01  5.97985935154E+01  1.05700000000E-01  0.0000E+00  9.0
  3000022    1    4    4    0    0  6.43682341029E+01  4.15193657382E+01  2.56643859587E+01  1.00626974512E+02  6.00000000000E+01  0.0000E+00  9.0
</event>
<event>
10    1   3.4312288E-02   4.9990000E+02  -1.0000000E+00   9.3490000E-02
       11   -1    0    0    0    0  0.00000000000E+00  0.00000000000E+00  2.49914606510E+02  2.49914606510E+02  0.00000000000E+00  0.0000E+00  9.0
      -11   -1    0    0    0    0  0.00000000000E+00  0.00000000000E+00 -2.50000000000E+02  2.50000000000E+02  0.00000000000E+00  0.0000E+00  9.0
  3000025    2    1    2    0    0  8.81122625308E+01 -6.69536542579E+01  1.56334227917E+02  2.49569024760E+02  1.59992951953E+02  2.4107E-12  9.0
 -3000025    2    1    2    0    0 -8.81122625308E+01  6.69536542579E+01 -1.56419621407E+02  2.50345581755E+02  1.61118744149E+02  5.1702E-13  9.0
        2    1    3    3  500    0 -7.22405081376E-01 -1.04717820538E+01 -1.58494728526E+01  1.90101522137E+01  3.00000000000E-03  0.0000E+00  9.0
       -1    1    3    3    0  500  7.77526634728E+01 -2.52600707057E+01  7.06143532415E+01  1.08027472237E+02  5.00000000000E-03  0.0000E+00  9.0
  3000022    1    3    3    0    0  1.10820041394E+01 -3.12218014984E+01  1.01569347528E+02  1.22531400310E+02  6.00000000000E+01  0.0000E+00  9.0
       -2    1    4    4    0  504 -2.56049080111E+01  7.94240724147E-01 -6.32182767824E+01  6.82113821948E+01  3.00000000000E-03  0.0000E+00  9.0
        1    1    4    4  504    0  2.08399965401E+01  3.48154214342E+01 -9.72426402258E-01  4.05877403109E+01  5.00000000000E-03  0.0000E+00  9.0
  3000022    1    4    4    0    0 -8.33473510600E+01  3.13439921005E+01 -9.22289182241E+01  1.41546459250E+02  6.00000000000E+01  0.0000E+00  9.0
</event>
<event>
10    1   3.4312288E-02   4.9690000E+02  -1.0000000E+00   9.3560000E-02
       11   -1    0    0    0    0  0.00000000000E+00  0.00000000000E+00  2.48731769080E+02  2.48731769080E+02  0.00000000000E+00  0.0000E+00  9.0
      -11   -1    0    0    0    0  0.00000000000E+00  0.00000000000E+00 -2.48182379410E+02  2.48182379410E+02  0.00000000000E+00  0.0000E+00  9.0
  3000025    2    1    2    0    0 -1.86947239787E+02 -1.42775690387E+01 -3.11879993947E+01  2.48383588963E+02  1.59901834005E+02  4.4954E-13  9.0
 -3000025    2    1    2    0    0  1.86947239787E+02  1.42775690387E+01  3.17373890687E+01  2.48530559524E+02  1.60022053826E+02  2.7580E-12  9.0
        2    1    3    3  500    0 -1.28919641095E+02  6.29504990159E+00 -8.13731880447E+00  1.29329491917E+02  3.00000000000E-03  0.0000E+00  9.0
       -1    1    3    3    0  500 -2.14856857487E+01 -2.23960600035E+01 -3.60684865266E+01  4.75831266427E+01  5.00000000000E-03  0.0000E+00  9.0
  3000022    1    3    3    0    0 -3.65419129425E+01  1.82344106334E+00  1.30178059359E+01  7.14709704019E+01  6.00000000000E+01  0.0000E+00  9.0
      -14    1    4    4    0    0  3.79533587862E+01  6.14020497405E+00  4.45091288987E+01  5.88151520919E+01  0.00000000000E+00  0.0000E+00  9.0
       13    1    4    4    0    0  7.10034031504E+01  4.02748578133E+01 -2.52609062494E+01  8.54498214618E+01  1.05700000000E-01  0.0000E+00  9.0
  3000022    1    4    4    0    0  7.79904778507E+01 -3.21374937493E+01  1.24891664192E+01  1.04265585970E+02  6.00000000000E+01  0.0000E+00  9.0
</event>
<event>
10    1   3.4312288E-02   4.9810000E+02  -1.0000000E+00   9.3530000E-02
       11   -1    0    0    0    0  0.00000000000E+00  0.00000000000E+00  2.49945614140E+02  2.49945614140E+02  0.00000000000E+00  0.0000E+00  9.0
      -11   -1    0    0    0    0  0.00000000000E+00  0.00000000000E+00 -2.48131987000E+02  2.48131987000E+02  0.00000000000E+00  0.0000E+00  9.0
  3000025    2    1    2    0    0 -1.74379372281E+02  6.26656365176E+01 -4.48017086563E+01  2.48890850287E+02  1.60013483121E+02  1.0063E-12  9.0
 -3000025    2    1    2    0    0  1.74379372281E+02 -6.26656365176E+01  4.66153357943E+01  2.49186750855E+02  1.59955930784E+02  9.3966E-13  9.0
        2    1    3    3  500    0 -1.00999391102E+02  1.41828054360E+01 -2.01608501111E+01  1.03963882475E+02  3.00000000000E-03  0.0000E+00  9.0
       -1    1    3    3    0  500 -1.00623290957E+01  2.42295347420E+01  2.94651972768E+01  3.94527400342E+01  5.00000000000E-03  0.0000E+00  9.0
  3000022    1    3    3    0    0 -6.33176520816E+01  2.42532963399E+01 -5.41060558216E+01  1.05474227777E+02  6.00000000000E+01  0.0000E+00  9.0
       -4    1    4    4    0  504 -5.48740696408E+00  3.60489839650E+00 -1.37164305598E+01  1.52775300014E+01  1.46817165330E+00  0.0000E+00  9.0
        3    1    4    4  504    0  1.31790666148E+02 -2.50539790033E+01  1.33162459517E+01  1.34810400021E+02  2.00000000000E-01  0.0000E+00  9.0
  3000022    1    4    4    0    0  4.80761130977E+01 -4.12165559108E+01  4.70155204024E+01  9.90988208327E+01  6.00000000000E+01  0.0000E+00  9.0
</event>
<event>
10    1   3.4312288E-02   4.9550000E+02  -1.0000000E+00   9.3590000E-02
       11   -1    0    0    0    0  0.00000000000E+00  0.00000000000E+00  2.50000000000E+02  2.50000000000E+02  0.00000000000E+00  0.0000E+00  9.0
      -11   -1    0    0    0    0  0.00000000000E+00  0.00000000000E+00 -2.45483888550E+02  2.45483888550E+02  0.00000000000E+00  0.0000E+00  9.0
  3000025    2    1    2    0    0  1.85143239643E+02  3.03424076307E+01  2.54675772181E+01  2.48030397124E+02  1.60224216403E+02  2.3087E-13  9.0
 -3000025    2    1    2    0    0 -1.85143239643E+02 -3.03424076307E+01 -2.09514657661E+01  2.47453491427E+02  1.59986204453E+02  1.2785E-12  9.0
        4    1    3    3  500    0  3.10040249405E+01 -2.86176218638E+01  6.63318400538E+00  4.27360796249E+01  1.46817165330E+00  0.0000E+00  9.0
       -3    1    3    3    0  500  9.19663242395E+01  1.66287998704E+01 -2.89870651760E+01  9.78499449503E+01  2.00000000000E-01  0.0000E+00  9.0
  3000022    1    3    3    0    0  6.21728904635E+01  4.23312296245E+01  4.78214583891E+01  1.07444372550E+02  6.00000000000E+01  0.0000E+00  9.0
       -4    1    4    4    0  504 -9.91502527041E+01 -3.23256648517E+01  1.71063070906E+01  1.05690597925E+02  1.46817165330E+00  0.0000E+00  9.0
        3    1    4    4  504    0  5.19378174133E+00  1.88005094302E+01  9.28114348419E+00  2.16012533893E+01  2.00000000000E-01  0.0000E+00  9.0
  3000022    1    4    4    0    0 -9.11867686796E+01 -1.68172522093E+01 -4.73389163419E+01  1.20161640113E+02  6.00000000000E+01  0.0000E+00  9.0
</event>
<event>
10    1   3.4312288E-02   3.9430000E+02  -1.0000000E+00   9.6190000E-02
       11   -1    0    0    0    0  0.00000000000E+00  0.00000000000E+00  1.57807777700E+02  1.57807777700E+02  0.00000000000E+00  0.0000E+00  9.0
      -11   -1    0    0    0    0  0.00000000000E+00  0.00000000000E+00 -2.46340213370E+02  2.46340213370E+02  0.00000000000E+00  0.0000E+00  9.0
  3000025    2    1    2    0    0 -9.99377929733E+01  5.52659806337E+01 -5.82722673785E+01  2.05079382239E+02  1.60062502774E+02  8.2282E-13  9.0
 -3000025    2    1    2    0    0  9.99377929733E+01 -5.52659806337E+01 -3.02601682835E+01  1.99068608835E+02  1.60220916734E+02  1.6982E-12  9.0
        4    1    3    3  500    0 -1.95393221568E+01 -3.33650100143E+01 -1.96227141134E+01  4.33845069210E+01  1.46817165330E+00  0.0000E+00  9.0
       -3    1    3    3    0  500 -6.35344945418E+01  3.83706460998E+01 -3.64560852715E+00  7.43119703704E+01  2.00000000000E-01  0.0000E+00  9.0
  3000022    1    3    3    0    0 -1.68639762745E+01  5.02603445481E+01 -3.50039447378E+01  8.73829049476E+01  6.00000000000E+01  0.0000E+00  9.0
       -2    1    4    4    0  504  6.71630515952E+01 -5.26155853611E+01 -3.05802429981E+01  9.06334739116E+01  3.00000000000E-03  0.0000E+00  9.0
        1    1    4    4  504    0 -2.25739644994E+01 -3.59023759563E+00 -1.20958075257E+01  2.58608248885E+01  5.00000000000E-03  0.0000E+00  9.0
  3000022    1    4    4    0    0  5.53487058775E+01  9.39842323135E-01  1.24158822401E+01  8.25743100347E+01  6.00000000000E+01  0.0000E+00  9.0
</event>
<event>
10    1   3.4312288E-02   4.9980000E+02  -1.0000000E+00   9.3490000E-02
       11   -1    0    0    0    0  0.00000000000E+00  0.00000000000E+00  2.49999983600E+02  2.49999983600E+02  0.00000000000E+00  0.0000E+00  9.0
      -11   -1    0    0    0    0  0.00000000000E+00  0.00000000000E+00 -2.49831409460E+02  2.49831409460E+02  0.00000000000E+00  0.0000E+00  9.0
  3000025    2    1    2    0    0 -1.21864468563E+02 -1.25226440046E+02  7.96862677007E+01  2.50011350846E+02  1.60072372091E+02  1.8644E-13  9.0
 -3000025    2    1    2    0    0  1.21864468563E+02  1.25226440046E+02 -7.95176935607E+01  2.49820042215E+02  1.59857373675E+02  1.7565E-12  9.0
        2    1    3    3  500    0 -5.87551909121E+01 -3.29631170524E+01  5.42751931763E+01  8.65132137205E+01  3.00000000000E-03  0.0000E+00  9.0
       -1    1    3    3    0  500 -4.56059985048E+01 -5.62679919783E+01 -2.37367882587E+01  7.62196114050E+01  5.00000000000E-03  0.0000E+00  9.0
  3000022    1    3    3    0    0 -1.75032791462E+01 -3.59953310140E+01  4.91478627829E+01  8.72785257197E+01  6.00000000000E+01  0.0000E+00  9.0
       -4    1    4    4    0  504  4.34275564961E+01  9.33664429993E+01 -5.50553132849E+01  1.16775375788E+02  1.46817165330E+00  0.0000E+00  9.0
        3    1    4    4  504    0  4.54796517513E+01  1.94208273194E+01  1.67084685127E+01  5.21994269818E+01  2.00000000000E-01  0.0000E+00  9.0
  3000022    1    4    4    0    0  3.29572603164E+01  1.24391697280E+01 -4.11708487887E+01  8.08452394459E+01  6.00000000000E+01  0.0000E+00  9.0
</event>
<event>
10    1   3.4312288E-02   5.0000000E+02  -1.0000000E+00   9.3490000E-02
       11   -1    0    0    0    0  0.00000000000E+00  0.00000000000E+00  2.49999993780E+02  2.49999993780E+02  0.00000000000E+00  0.0000E+00  9.0
      -11   -1    0    0    0    0  0.00000000000E+00  0.00000000000E+00 -2.49999792710E+02  2.49999792710E+02  0.00000000000E+00  0.0000E+00  9.0
  3000025    2    1    2    0    0 -1.89172331461E+02  2.86784972222E+01 -1.75925428209E+01  2.49967403576E+02  1.59892395362E+02  1.9571E-12  9.0
 -3000025    2    1    2    0    0  1.89172331461E+02 -2.86784972222E+01  1.75927438859E+01  2.50032382916E+02  1.59993939498E+02  2.0016E-13  9.0
        4    1    3    3  500    0 -5.54214160396E+01  1.20330380372E+01  2.94080287307E+01  6.39008219202E+01  1.46817165330E+00  0.0000E+00  9.0
       -3    1    3    3    0  500 -7.22831911524E+01  3.76014845350E+01 -5.34011219674E+01  9.74189467701E+01  2.00000000000E-01  0.0000E+00  9.0
  3000022    1    3    3    0    0 -6.14677242688E+01 -2.09560253504E+01  6.40055041584E+00  8.86476348861E+01  6.00000000000E+01  0.0000E+00  9.0
       -4    1    4    4    0  504  7.01427300314E+01 -6.76456447124E+01  5.14713831259E+00  9.75939771996E+01  1.46817165330E+00  0.0000E+00  9.0
        3    1    4    4  504    0  3.06135695077E+01  2.04384034054E+01 -1.62837136604E+01  4.02506931908E+01  2.00000000000E-01  0.0000E+00  9.0
  3000022    1    4    4    0    0  8.84160319218E+01  1.85287440849E+01  2.87293192329E+01  1.12187712526E+02  6.00000000000E+01  0.0000E+00  9.0
</event>
<event>
10    1   3.4312288E-02   4.9960000E+02  -1.0000000E+00   9.3500000E-02
       11   -1    0    0    0    0  0.00000000000E+00  0.00000000000E+00  2.49999999990E+02  2.49999999990E+02  0.00000000000E+00  0.0000E+00  9.0
      -11   -1    0    0    0    0  0.00000000000E+00  0.00000000000E+00 -2.49598886480E+02  2.49598886480E+02  0.00000000000E+00  0.0000E+00  9.0
  3000025    2    1    2    0    0 -1.52480884430E+02 -8.40727932187E+01 -8.02542801484E+01  2.49755342939E+02  1.60057262154E+02  1.3552E-13  9.0
 -3000025    2    1    2    0    0  1.52480884430E+02  8.40727932187E+01  8.06553936624E+01  2.49843543533E+02  1.59993278116E+02  7.5020E-13  9.0
        4    1    3    3  500    0 -7.91652112250E+01 -2.43316956575E+01 -4.68309050151E+01  9.51548804550E+01  1.46817165330E+00  0.0000E+00  9.0
       -3    1    3    3    0  500  1.49553283239E+01 -2.67622676948E+01 -2.99140672625E+01  4.28342414153E+01  2.00000000000E-01  0.0000E+00  9.0
  3000022    1    3    3    0    0 -8.82710015285E+01 -3.29788298665E+01 -3.50930787080E+00  1.11766221069E+02  6.00000000000E+01  0.0000E+00  9.0
       -2    1    4    4    0  504  9.44372289684E+01  1.40050828992E+01  7.93191743255E+01  1.24121166555E+02  3.00000000000E-03  0.0000E+00  9.0
        1    1    4    4  504    0 -1.17750911565E+01  6.77737449343E+00 -3.03666212222E+00  1.39214553339E+01  5.00000000000E-03  0.0000E+00  9.0
  3000022    1    4    4    0    0  6.98187466183E+01  6.32903358258E+01  4.37288145908E+00  1.11800921644E+02  6.00000000000E+01  0.0000E+00  9.0
</event>
<event>
10    1   3.4312288E-02   4.8840000E+02  -1.0000000E+00   9.3750000E-02
       11   -1    0    0    0    0  0.00000000000E+00  0.00000000000E+00  2.39296102200E+02  2.39296102200E+02  0.00000000000E+00  0.0000E+00  9.0
      -11   -1    0    0    0    0  0.00000000000E+00  0.00000000000E+00 -2.49197557640E+02  2.49197557640E+02  0.00000000000E+00  0.0000E+00  9.0
  3000025    2    1    2    0    0  1.33874132392E+02 -1.19581279963E+02  3.81206106865E+01  2.43387870769E+02  1.59882797189E+02  2.3886E-12  9.0
 -3000025    2    1    2    0    0 -1.33874132392E+02  1.19581279963E+02 -4.80220661235E+01  2.45105789074E+02  1.59839804683E+02  1.4661E-13  9.0
        2    1    3    3  500    0  1.08407254772E+02 -5.68763291810E+01  1.77563857112E+01  1.23702623056E+02  3.00000000000E-03  0.0000E+00  9.0
       -1    1    3    3    0  500  4.33235355266E+00 -5.32123842314E+01  5.49027909190E+00  5.36700131582E+01  5.00000000000E-03  0.0000E+00  9.0
  3000022    1    3    3    0    0  2.11345240691E+01 -9.49256655141E+00  1.48739458835E+01  6.60152345562E+01  6.00000000000E+01  0.0000E+00  9.0
       -2    1    4    4    0  504  9.07201355655E+00  4.13281209570E+01 -4.53455683015E+00  4.25544031382E+01  3.00000000000E-03  0.0000E+00  9.0
        1    1    4    4  504    0 -5.76080957563E+01 -2.59288193720E+00  1.27998939420E+01  5.90698996387E+01  5.00000000000E-03  0.0000E+00  9.0
  3000022    1    4    4    0    0 -8.53380501928E+01  8.08460409436E+01 -5.62874032358E+01  1.43481486297E+02  6.00000000000E+01  0.0000E+00  9.0
</event>
<event>
10    1   3.4312288E-02   4.7930000E+02  -1.0000000E+00   9.3960000E-02
       11   -1    0    0    0    0  0.00000000000E+00  0.00000000000E+00  2.35723433530E+02  2.35723433530E+02  0.00000000000E+00  0.0000E+00  9.0
      -11   -1    0    0    0    0  0.00000000000E+00  0.00000000000E+00 -2.43602602110E+02  2.43602602110E+02  0.00000000000E+00  0.0000E+00  9.0
  3000025    2    1    2    0    0  1.01089267034E+02  1.13265964507E+02 -9.75902598061E+01  2.41218313735E+02  1.60044360871E+02  3.1785E-12  9.0
 -3000025    2    1    2    0    0 -1.01089267034E+02 -1.13265964507E+02  8.97110912211E+01  2.38107721906E+02  1.59996839711E+02  2.0226E-12  9.0
        4    1    3    3  500    0 -1.87488939890E+00 -1.37593329757E+00  1.55850006891E+01  1.58258073153E+01  1.46817165330E+00  0.0000E+00  9.0
       -3    1    3    3    0  500  7.16976937040E+01  2.93804254954E+01 -8.05396939919E+01  1.11760686259E+02  2.00000000000E-01  0.0000E+00  9.0
  3000022    1    3    3    0    0  3.12664627292E+01  8.52614723095E+01 -3.26355665022E+01  1.13631820160E+02  6.00000000000E+01  0.0000E+00  9.0
       -2    1    4    4    0  504 -6.32843966784E+01 -5.69616713132E+01  1.43114527621E+01  8.63386619708E+01  3.00000000000E-03  0.0000E+00  9.0
        1    1    4    4  504    0 -1.78720485089E+01 -3.57001103444E+00  6.65085084915E+01  6.89604004009E+01  5.00000000000E-03  0.0000E+00  9.0
  3000022    1    4    4    0    0 -1.99328218470E+01 -5.27342821594E+01  8.89112996752E+00  8.28086595336E+01  6.00000000000E+01  0.0000E+00  9.0
</event>
<event>
10    1   3.4312288E-02   4.9900000E+02  -1.0000000E+00   9.3510000E-02
       11   -1    0    0    0    0  0.00000000000E+00  0.00000000000E+00  2.49991089220E+02  2.49991089220E+02  0.00000000000E+00  0.0000E+00  9.0
      -11   -1    0    0    0    0  0.00000000000E+00  0.00000000000E+00 -2.48985989760E+02  2.48985989760E+02  0.00000000000E+00  0.0000E+00  9.0
  3000025    2    1    2    0    0  1.69941741181E+00 -1.91435277587E+02  4.23300760965E+00  2.49467317775E+02  1.59892685136E+02  5.7924E-13  9.0
 -3000025    2    1    2    0    0 -1.69941741181E+00  1.91435277587E+02 -3.22790815035E+00  2.49509761194E+02  1.59982336574E+02  2.8760E-12  9.0
        2    1    3    3  500    0  1.89325399511E+01 -4.99854893720E+01  2.27383522013E+01  5.80863399311E+01  3.00000000000E-03  0.0000E+00  9.0
       -1    1    3    3    0  500 -2.39052000346E+00 -2.55634656578E+01 -5.00994879241E+01  5.62953290920E+01  5.00000000000E-03  0.0000E+00  9.0
  3000022    1    3    3    0    0 -1.48426025355E+01 -1.15886322557E+02  3.15941433315E+01  1.35085648752E+02  6.00000000000E+01  0.0000E+00  9.0
       -2    1    4    4    0  504 -2.36281099657E+01  8.79735663849E+01  4.07365924526E+01  9.97852992012E+01  3.00000000000E-03  0.0000E+00  9.0
        1    1    4    4  504    0 -1.25476557608E+01  6.47144472489E+00 -2.55123515897E+01  2.91582470418E+01  5.00000000000E-03  0.0000E+00  9.0
  3000022    1    4    4    0    0  3.44763483146E+01  9.69902664775E+01 -1.84521490133E+01  1.20566214951E+02  6.00000000000E+01  0.0000E+00  9.0
</event>
<event>
10    1   3.4312288E-02   4.8340000E+02  -1.0000000E+00   9.3870000E-02
       11   -1    0    0    0    0  0.00000000000E+00  0.00000000000E+00  2.49765203300E+02  2.49765203300E+02  0.00000000000E+00  0.0000E+00  9.0
      -11   -1    0    0    0    0  0.00000000000E+00  0.00000000000E+00 -2.33915172300E+02  2.33915172300E+02  0.00000000000E+00  0.0000E+00  9.0
  3000025    2    1    2    0    0  1.20912087054E+02  1.22376353039E+02 -4.86891759821E+01  2.40031175156E+02  1.60151879821E+02  1.8326E-12  9.0
 -3000025    2    1    2    0    0 -1.20912087054E+02 -1.22376353039E+02  6.45392069861E+01  2.43649200434E+02  1.60012246578E+02  8.8363E-13  9.0
        4    1    3    3  500    0  6.57854598839E+01  2.37862520172E+01  2.85084831496E+00  7.00271046187E+01  1.46817165330E+00  0.0000E+00  9.0
       -3    1    3    3    0  500  1.86848321666E+01  3.00446369748E+01 -6.19468793766E+01  7.13390428065E+01  2.00000000000E-01  0.0000E+00  9.0
  3000022    1    3    3    0    0  3.64417950031E+01  6.85454640466E+01  1.04068550796E+01  9.86650277305E+01  6.00000000000E+01  0.0000E+00  9.0
       -2    1    4    4    0  504 -2.33449194090E+01 -2.13710395434E+01  6.50778620789E+01  7.23659777461E+01  3.00000000000E-03  0.0000E+00  9.0
        1    1    4    4  504    0 -1.84220584260E+01 -5.41849290265E+00 -2.47542699852E+01  3.13289994970E+01  5.00000000000E-03  0.0000E+00  9.0
  3000022    1    4    4    0    0 -7.91451092185E+01 -9.55868205930E+01  2.42156148928E+01  1.39954223191E+02  6.00000000000E+01  0.0000E+00  9.0
</event>
<event>
10    1   3.4312288E-02   4.8560000E+02  -1.0000000E+00   9.3810000E-02
       11   -1    0    0    0    0  0.00000000000E+00  0.00000000000E+00  2.49999902990E+02  2.49999902990E+02  0.00000000000E+00  0.0000E+00  9.0
      -11   -1    0    0    0    0  0.00000000000E+00  0.00000000000E+00 -2.35827635410E+02  2.35827635410E+02  0.00000000000E+00  0.0000E+00  9.0
  3000025    2    1    2    0    0 -8.91387072631E+01 -8.92706883769E+01 -1.25118305969E+02  2.39055257615E+02  1.59930799938E+02  1.0375E-12  9.0
 -3000025    2    1    2    0    0  8.91387072631E+01  8.92706883769E+01  1.39290573549E+02  2.46772280783E+02  1.59936642917E+02  1.2817E-12  9.0
        4    1    3    3  500    0  7.71955638670E+00  1.58932939096E+01 -3.34712474817E+00  1.80429242139E+01  1.46817165330E+00  0.0000E+00  9.0
       -3    1    3    3    0  500 -5.54050010748E+01 -4.12149729652E+01 -1.00131480329E+02  1.21633636357E+02  2.00000000000E-01  0.0000E+00  9.0
  3000022    1    3    3    0    0 -4.14532625747E+01 -6.39490093219E+01 -2.16397008912E+01  9.93786970432E+01  6.00000000000E+01  0.0000E+00  9.0
       -2    1    4    4    0  504  5.58213743044E+01  2.14272214130E+01  4.13433218235E+00  5.99353348061E+01  3.00000000000E-03  0.0000E+00  9.0
        1    1    4    4  504    0  2.65966101868E+00  6.02799208591E+01  5.29503534237E+01  8.02775348912E+01  5.00000000000E-03  0.0000E+00  9.0
  3000022    1    4    4    0    0  3.06576719403E+01  7.56354610482E+00  8.22058879432E+01  1.06559411086E+02  6.00000000000E+01  0.0000E+00  9.0
</event>
<event>
10    1   3.4312288E-02   5.0000000E+02  -1.0000000E+00   9.3490000E-02
       11   -1    0    0    0    0  0.00000000000E+00  0.00000000000E+00  2.49995374720E+02  2.49995374720E+02  0.00000000000E+00  0.0000E+00  9.0
      -11   -1    0    0    0    0  0.00000000000E+00  0.00000000000E+00 -2.49982127680E+02  2.49982127680E+02  0.00000000000E+00  0.0000E+00  9.0
  3000025    2    1    2    0    0 -2.96660188435E+01 -1.66720029464E+02 -9.11514139206E+01  2.50103999024E+02  1.59899309472E+02  7.0088E-13  9.0
 -3000025    2    1    2    0    0  2.96660188435E+01  1.66720029464E+02  9.11646609596E+01  2.49873503379E+02  1.59530973119E+02  1.6465E-13  9.0
        2    1    3    3  500    0  2.36672492859E+01 -9.51839527601E+00 -7.30420622261E+00  2.65346937977E+01  3.00000000000E-03  0.0000E+00  9.0
       -1    1    3    3    0  500 -4.16037422852E+01 -1.06692697155E+02 -8.75980181173E+01  1.44179110143E+02  5.00000000000E-03  0.0000E+00  9.0
  3000022    1    3    3    0    0 -1.17295258449E+01 -5.05089370324E+01  3.75081041938E+00  7.93901950841E+01  6.00000000000E+01  0.0000E+00  9.0
       -2    1    4    4    0  504 -2.12566145514E+01  7.49532115766E+01  3.19067244623E+01  8.41894688351E+01  3.00000000000E-03  0.0000E+00  9.0
        1    1    4    4  504    0  5.26269712847E+00 -1.95634075301E+01  7.24538281692E+00  2.15155407187E+01  5.00000000000E-03  0.0000E+00  9.0
  3000022    1    4    4    0    0  4.56599362664E+01  1.11330225419E+02  5.20125536806E+01  1.44168493826E+02  6.00000000000E+01  0.0000E+00  9.0
</event>
<event>
10    1   3.4312288E-02   4.9350000E+02  -1.0000000E+00   9.3640000E-02
       11   -1    0    0    0    0  0.00000000000E+00  0.00000000000E+00  2.49139301250E+02  2.49139301250E+02  0.00000000000E+00  0.0000E+00  9.0
      -11   -1    0    0    0    0  0.00000000000E+00  0.00000000000E+00 -2.44390636870E+02  2.44390636870E+02  0.00000000000E+00  0.0000E+00  9.0
  3000025    2    1    2    0    0  1.83927344823E+02 -3.79615076211E+01  2.91503103242E-01  2.46759150612E+02  1.60061391978E+02  1.1940E-12  9.0
 -3000025    2    1    2    0    0 -1.83927344823E+02  3.79615076211E+01  4.45716126976E+00  2.46770787517E+02  1.60017533572E+02  1.9748E-13  9.0
       14    1    3    3    0    0  7.48867722394E+01 -2.43236310228E+01 -2.49951702873E+01  8.26100854633E+01  0.00000000000E+00  0.0000E+00  9.0
      -13    1    3    3    0    0  3.54500084835E+01 -2.94078867209E+01  4.66482440605E+01  6.55560580670E+01  1.05700000000E-01  0.0000E+00  9.0
  3000022    1    3    3    0    0  7.35905641012E+01  1.57700101215E+01 -2.13615706700E+01  9.85930070819E+01  6.00000000000E+01  0.0000E+00  9.0
       -4    1    4    4    0  500 -4.08365129528E+01  4.57625053160E+01  2.99824870393E+01  6.82856700926E+01  1.46817165330E+00  0.0000E+00  9.0
        3    1    4    4  500    0 -2.35052805900E+01 -3.23240147149E+01  6.23713060960E-01  3.99721047843E+01  2.00000000000E-01  0.0000E+00  9.0
  3000022    1    4    4    0    0 -1.19585551280E+02  2.45230170196E+01 -2.61490388308E+01  1.38513012640E+02  6.00000000000E+01  0.0000E+00  9.0
</event>
<event>
10    1   3.4312288E-02   4.9220000E+02  -1.0000000E+00   9.3670000E-02
       11   -1    0    0    0    0  0.00000000000E+00  0.00000000000E+00  2.42238748500E+02  2.42238748500E+02  0.00000000000E+00  0.0000E+00  9.0
      -11   -1    0    0    0    0  0.00000000000E+00  0.00000000000E+00 -2.49999565610E+02  2.49999565610E+02  0.00000000000E+00  0.0000E+00  9.0
  3000025    2    1    2    0    0  1.86588209825E+02  5.98969046482E+00 -2.53919486079E+01  2.45865647992E+02  1.57968760743E+02  5.4202E-13  9.0
 -3000025    2    1    2    0    0 -1.86588209825E+02 -5.98969046482E+00  1.76311315019E+01  2.46372666123E+02  1.59804872819E+02  1.1708E-12  9.0
        4    1    3    3  500    0  1.50837132734E+01 -2.37224539462E+01 -2.92885161326E+01  4.06232191314E+01  1.46817165330E+00  0.0000E+00  9.0
       -3    1    3    3    0  500  1.02375448107E+02  3.20232033052E+01 -2.32095672112E+01  1.09749450728E+02  2.00000000000E-01  0.0000E+00  9.0
  3000022    1    3    3    0    0  6.91290484457E+01 -2.31105889471E+00  2.71061347368E+01  9.54929781324E+01  6.00000000000E+01  0.0000E+00  9.0
      -14    1    4    4    0    0 -3.50750515887E+01 -2.06710833294E+01 -2.73839145765E+01  4.90655857755E+01  0.00000000000E+00  0.0000E+00  9.0
       13    1    4    4    0    0  3.22912096365E+00 -1.89978826389E+01 -6.43049167728E+00  2.03152445877E+01  1.05700000000E-01  0.0000E+00  9.0
  3000022    1    4    4    0    0 -1.54742279201E+02  3.36792755034E+01  5.14455377551E+01  1.76991835760E+02  6.00000000000E+01  0.0000E+00  9.0
</event>
<event>
10    1   3.4312288E-02   4.9840000E+02  -1.0000000E+00   9.3530000E-02
       11   -1    0    0    0    0  0.00000000000E+00  0.00000000000E+00  2.50000000000E+02  2.50000000000E+02  0.00000000000E+00  0.0000E+00  9.0
      -11   -1    0    0    0    0  0.00000000000E+00  0.00000000000E+00 -2.48433196450E+02  2.48433196450E+02  0.00000000000E+00  0.0000E+00  9.0
  3000025    2    1    2    0    0 -1.82955484876E+02 -5.37242735167E+01  1.17096126472E+01  2.49344500055E+02  1.60239064114E+02  6.7041E-14  9.0
 -3000025    2    1    2    0    0  1.82955484876E+02  5.37242735167E+01 -1.01428091032E+01  2.49088696402E+02  1.59947788630E+02  8.3260E-13  9.0
        4    1    3    3  500    0 -7.07096729409E+01 -1.79307244544E+01 -5.06995412511E+01  8.88480035676E+01  1.46817165330E+00  0.0000E+00  9.0
       -3    1    3    3    0  500 -2.01887120118E+01  1.15655394922E+01  2.71460653558E+01  3.57532468559E+01  2.00000000000E-01  0.0000E+00  9.0
  3000022    1    3    3    0    0 -9.20570999228E+01 -4.73590885544E+01  3.52630885436E+01  1.24743249631E+02  6.00000000000E+01  0.0000E+00  9.0
       -2    1    4    4    0  504  1.12419869510E+01  2.74003806925E+01  3.41416699334E+01  4.51975305469E+01  3.00000000000E-03  0.0000E+00  9.0
        1    1    4    4  504    0  8.49024522429E+01 -8.62562704827E+00 -3.27216915858E+00  8.54021952577E+01  5.00000000000E-03  0.0000E+00  9.0
  3000022    1    4    4    0    0  8.68110456822E+01  3.49495198725E+01 -4.10123098781E+01  1.18488970598E+02  6.00000000000E+01  0.0000E+00  9.0
</event>
<event>
10    1   3.4312288E-02   4.7520000E+02  -1.0000000E+00   9.4060000E-02
       11   -1    0    0    0    0  0.00000000000E+00  0.00000000000E+00  2.27551034270E+02  2.27551034270E+02  0.00000000000E+00  0.0000E+00  9.0
      -11   -1    0    0    0    0  0.00000000000E+00  0.00000000000E+00 -2.48058242360E+02  2.48058242360E+02  0.00000000000E+00  0.0000E+00  9.0
  3000025    2    1    2    0    0 -6.02427276606E+01  3.70260245759E+01  1.51643461129E+02  2.31342365114E+02  1.59760564162E+02  2.8799E-12  9.0
 -3000025    2    1    2    0    0  6.02427276606E+01 -3.70260245759E+01 -1.72150669229E+02  2.44266911513E+02  1.58209855611E+02  5.6119E-13  9.0
        4    1    3    3  500    0  2.10961138212E+01  8.15621638923E+00  1.52699752152E+01  2.73294265440E+01  1.46817165330E+00  0.0000E+00  9.0
       -3    1    3    3    0  500 -7.47476919964E+01  1.01949199962E+01  3.18746603387E+01  8.18974225738E+01  2.00000000000E-01  0.0000E+00  9.0
  3000022    1    3    3    0    0 -6.59114948532E+00  1.86748881904E+01  1.04498825574E+02  1.22115515996E+02  6.00000000000E+01  0.0000E+00  9.0
       -2    1    4    4    0  504  3.75053119343E+01 -2.74131834195E+01 -8.05132046552E+00  4.71482217981E+01  3.00000000000E-03  0.0000E+00  9.0
        1    1    4    4  504    0 -1.43013565373E+01 -2.91066622312E+01 -7.58332093386E+01  8.24766769980E+01  5.00000000000E-03  0.0000E+00  9.0
  3000022    1    4    4    0    0  3.70387722635E+01  1.94938210748E+01 -8.82661394240E+01  1.14642012717E+02  6.00000000000E+01  0.0000E+00  9.0
</event>
<event>
10    1   3.4312288E-02   4.7640000E+02  -1.0000000E+00   9.4030000E-02
       11   -1    0    0    0    0  0.00000000000E+00  0.00000000000E+00  2.46629008070E+02  2.46629008070E+02  0.00000000000E+00  0.0000E+00  9.0
      -11   -1    0    0    0    0  0.00000000000E+00  0.00000000000E+00 -2.30068566780E+02  2.30068566780E+02  0.00000000000E+00  0.0000E+00  9.0
  3000025    2    1    2    0    0 -6.98099143024E+01 -6.17344922072E+00  1.70346679515E+02  2.43964885596E+02  1.59966679567E+02  1.1494E-12  9.0
 -3000025    2    1    2    0    0  6.98099143024E+01  6.17344922072E+00 -1.53786238225E+02  2.32732689262E+02  1.60008630935E+02  5.0262E-12  9.0
        2    1    3    3  500    0 -5.32060202237E+01 -5.28196355009E+00  8.49183661339E+01  1.00348934438E+02  3.00000000000E-03  0.0000E+00  9.0
       -1    1    3    3    0  500 -1.42856857052E+00  3.71066692592E+01  9.04718704247E+00  3.82203784656E+01  5.00000000000E-03  0.0000E+00  9.0
  3000022    1    3    3    0    0 -1.51753255072E+01 -3.79981549294E+01  7.63811263393E+01  1.05395572692E+02  6.00000000000E+01  0.0000E+00  9.0
      -14    1    4    4    0    0  6.61457084030E+01  4.22980422017E+01 -5.77476403307E+01  9.74636808149E+01  0.00000000000E+00  0.0000E+00  9.0
       13    1    4    4    0    0 -1.95127995721E+01 -4.65107222419E+00 -7.54450566823E+00  2.14315785290E+01  1.05700000000E-01  0.0000E+00  9.0
  3000022    1    4    4    0    0  2.31770054716E+01 -3.14735207566E+01 -8.84940922267E+01  1.13837429919E+02  6.00000000000E+01  0.0000E+00  9.0
</event>
<event>
10    1   3.4312288E-02   4.9620000E+02  -1.0000000E+00   9.3580000E-02
       11   -1    0    0    0    0  0.00000000000E+00  0.00000000000E+00  2.49936995870E+02  2.49936995870E+02  0.00000000000E+00  0.0000E+00  9.0
      -11   -1    0    0    0    0  0.00000000000E+00  0.00000000000E+00 -2.46275703420E+02  2.46275703420E+02  0.00000000000E+00  0.0000E+00  9.0
  3000025    2    1    2    0    0 -1.85848574820E+02 -3.57325314870E+01 -8.61317692764E+00  2.48006055285E+02  1.60050960860E+02  9.8612E-13  9.0
 -3000025    2    1    2    0    0  1.85848574820E+02  3.57325314870E+01  1.22744693863E+01  2.48206644009E+02  1.60122980744E+02  7.9939E-13  9.0
        4    1    3    3  500    0 -1.19156555877E+02  2.67365241552E+01  2.41308506717E+00  1.22151975178E+02  1.46817165330E+00  0.0000E+00  9.0
       -3    1    3    3    0  500 -3.35772851198E+01 -3.63773735081E+01  7.87240607710E+00  5.01274591098E+01  2.00000000000E-01  0.0000E+00  9.0
  3000022    1    3    3    0    0 -3.31147338238E+01 -2.60916821341E+01 -1.88986680719E+01  7.57266209975E+01  6.00000000000E+01  0.0000E+00  9.0
       -2    1    4    4    0  504  8.87709386451E+01  5.96952915499E+01 -2.89985713417E-01  1.06976125757E+02  3.00000000000E-03  0.0000E+00  9.0
        1    1    4    4  504    0 -1.23907599345E+01 -7.97904635674E+00 -1.43026557548E-01  1.47382697124E+01  5.00000000000E-03  0.0000E+00  9.0
  3000022    1    4    4    0    0  1.09468396110E+02 -1.59837137061E+01  1.27074816573E+01  1.26492248540E+02  6.00000000000E+01  0.0000E+00  9.0
</event>
<event>
10    1   3.4312288E-02   4.9560000E+02  -1.0000000E+00   9.3590000E-02
       11   -1    0    0    0    0  0.00000000000E+00  0.00000000000E+00  2.47192812890E+02  2.47192812890E+02  0.00000000000E+00  0.0000E+00  9.0
      -11   -1    0    0    0    0  0.00000000000E+00  0.00000000000E+00 -2.48436060810E+02  2.48436060810E+02  0.00000000000E+00  0.0000E+00  9.0
  3000025    2    1    2    0    0  1.30955944544E+01 -1.88697970146E+02  1.09801093072E+01  2.47592774989E+02  1.59383816289E+02  7.7215E-13  9.0
 -3000025    2    1    2    0    0 -1.30955944544E+01  1.88697970146E+02 -1.22233572272E+01  2.48036098719E+02  1.59981490413E+02  6.1122E-13  9.0
        2    1    3    3  500    0 -3.82410767670E+01 -5.98494251643E+01 -2.35205206611E+01  7.48167664763E+01  3.00000000000E-03  0.0000E+00  9.0
       -1    1    3    3    0  500  4.10329161898E+01 -5.64055178784E+01 -5.65804488254E+00  6.99806841569E+01  5.00000000000E-03  0.0000E+00  9.0
  3000022    1    3    3    0    0  1.03037550318E+01 -7.24430271030E+01  4.01586748508E+01  1.02795324356E+02  6.00000000000E+01  0.0000E+00  9.0
      -14    1    4    4    0    0 -2.35189875565E+01 -6.18196739844E+00  3.12318504801E+00  2.45176218553E+01  0.00000000000E+00  0.0000E+00  9.0
       13    1    4    4    0    0  3.46969267980E+01  3.37956962970E+01  5.16196661931E+00  4.87101928686E+01  1.05700000000E-01  0.0000E+00  9.0
  3000022    1    4    4    0    0 -2.42735336960E+01  1.61084241247E+02 -2.05085088948E+01  1.74808283995E+02  6.00000000000E+01  0.0000E+00  9.0
</event>
<event>
10    1   3.4312288E-02   4.7720000E+02  -1.0000000E+00   9.4010000E-02
       11   -1    0    0    0    0  0.00000000000E+00  0.00000000000E+00  2.30927158930E+02  2.30927158930E+02  0.00000000000E+00  0.0000E+00  9.0
      -11   -1    0    0    0    0  0.00000000000E+00  0.00000000000E+00 -2.46502856780E+02  2.46502856780E+02  0.00000000000E+00  0.0000E+00  9.0
  3000025    2    1    2    0    0 -1.92726240878E+01  1.75694641490E+02 -7.23220513430E-01  2.38504517370E+02  1.60136943490E+02  2.7543E-12  9.0
 -3000025    2    1    2    0    0  1.92726240878E+01 -1.75694641490E+02 -1.48524773340E+01  2.38925498340E+02  1.60077345638E+02  4.3583E-13  9.0
        4    1    3    3  500    0 -3.89294467618E+01  9.95894514842E+01  3.48177033458E+01  1.12463276968E+02  1.46817165330E+00  0.0000E+00  9.0
       -3    1    3    3    0  500 -9.61650313769E+00 -6.62228119182E+00 -1.28083102617E+01  1.73327595190E+01  2.00000000000E-01  0.0000E+00  9.0
  3000022    1    3    3    0    0  2.92733258116E+01  8.27274711972E+01 -2.27326135975E+01  1.08708480882E+02  6.00000000000E+01  0.0000E+00  9.0
       -2    1    4    4    0  504 -2.80921424767E+00 -9.44468703604E+01 -5.37837961264E+01  1.08723501325E+02  3.00000000000E-03  0.0000E+00  9.0
        1    1    4    4  504    0  2.58566436725E+01 -4.92422168330E+01  2.34372875254E+01  6.03545227152E+01  5.00000000000E-03  0.0000E+00  9.0
  3000022    1    4    4    0    0 -3.77480533807E+00 -3.20055542962E+01  1.54940312670E+01  6.98474742997E+01  6.00000000000E+01  0.0000E+00  9.0
</event>
<event>
10    1   3.4312288E-02   4.8960000E+02  -1.0000000E+00   9.3720000E-02
       11   -1    0    0    0    0  0.00000000000E+00  0.00000000000E+00  2.41611352390E+02  2.41611352390E+02  0.00000000000E+00  0.0000E+00  9.0
      -11   -1    0    0    0    0  0.00000000000E+00  0.00000000000E+00 -2.48001624610E+02  2.48001624610E+02  0.00000000000E+00  0.0000E+00  9.0
  3000025    2    1    2    0    0  3.16948049259E+01  1.40127905601E+02 -1.20172778773E+02  2.46282090075E+02  1.59915541916E+02  5.8521E-13  9.0
 -3000025    2    1    2    0    0 -3.16948049259E+01 -1.40127905601E+02  1.13782506553E+02  2.43330886929E+02  1.60072081103E+02  9.1284E-13  9.0
        4    1    3    3  500    0 -2.96806290358E+01  5.51891913359E+00  5.70111731063E+00  3.07580310644E+01  1.46817165330E+00  0.0000E+00  9.0
       -3    1    3    3    0  500  8.56328259890E+00  7.17232415891E+01 -6.37917332158E+01  9.63689702113E+01  2.00000000000E-01  0.0000E+00  9.0
  3000022    1    3    3    0    0  5.28121513628E+01  6.28857448773E+01 -6.20821628672E+01  1.19155088799E+02  6.00000000000E+01  0.0000E+00  9.0
       -2    1    4    4    0  504 -3.06812708205E+00 -1.22871847728E+01  7.57630359572E+01  7.68142300611E+01  3.00000000000E-03  0.0000E+00  9.0
        1    1    4    4  504    0 -2.28345992779E+01 -7.95056271986E+01  3.30970848395E+01  8.90953462886E+01  5.00000000000E-03  0.0000E+00  9.0
  3000022    1    4    4    0    0 -5.79207856638E+00 -4.83350936301E+01  4.92238575666E+00  7.74213105797E+01  6.00000000000E+01  0.0000E+00  9.0
</event>
<event>
10    1   3.4312288E-02   4.4690000E+02  -1.0000000E+00   9.4750000E-02
       11   -1    0    0    0    0  0.00000000000E+00  0.00000000000E+00  2.00692474990E+02  2.00692474990E+02  0.00000000000E+00  0.0000E+00  9.0
      -11   -1    0    0    0    0  0.00000000000E+00  0.00000000000E+00 -2.48772309530E+02  2.48772309530E+02  0.00000000000E+00  0.0000E+00  9.0
  3000025    2    1    2    0    0 -5.97720856145E+01  1.38273329254E+02  1.68497902830E+01  2.20325464706E+02  1.59897401991E+02  6.1485E-13  9.0
 -3000025    2    1    2    0    0  5.97720856145E+01 -1.38273329254E+02 -6.49296248220E+01  2.29139319817E+02  1.59989861882E+02  1.6641E-13  9.0
       14    1    3    3    0    0 -5.17896963229E+01  2.89621325831E+01 -2.42837709530E+01  6.41145794704E+01  0.00000000000E+00  0.0000E+00  9.0
      -13    1    3    3    0    0 -1.66877109049E+01  8.19973145017E+01  2.93616834170E+01  8.86800930666E+01  1.05700000000E-01  0.0000E+00  9.0
  3000022    1    3    3    0    0  8.70532161352E+00  2.73138821693E+01  1.17718778183E+01  6.75307921686E+01  6.00000000000E+01  0.0000E+00  9.0
       -2    1    4    4    0  500  5.82524304087E+01 -9.91896044169E+01 -5.05899403141E+01  1.25663301496E+02  3.00000000000E-03  0.0000E+00  9.0
        1    1    4    4  500    0  1.88371748142E+00 -2.46133732587E+00 -3.10648550739E+01  3.12190938168E+01  5.00000000000E-03  0.0000E+00  9.0
  3000022    1    4    4    0    0 -3.64062275059E-01 -3.66223875101E+01  1.67251705661E+01  7.22569245038E+01  6.00000000000E+01  0.0000E+00  9.0
</event>
<event>
10    1   3.4312288E-02   5.0000000E+02  -1.0000000E+00   9.3490000E-02
       11   -1    0    0    0    0  0.00000000000E+00  0.00000000000E+00  2.49999989360E+02  2.49999989360E+02  0.00000000000E+00  0.0000E+00  9.0
      -11   -1    0    0    0    0  0.00000000000E+00  0.00000000000E+00 -2.50000000000E+02  2.50000000000E+02  0.00000000000E+00  0.0000E+00  9.0
  3000025    2    1    2    0    0  4.11401117219E+01 -1.67099981929E+02 -8.52228530148E+01  2.49977174005E+02  1.60033559275E+02  1.4174E-12  9.0
 -3000025    2    1    2    0    0 -4.11401117219E+01  1.67099981929E+02  8.52228423718E+01  2.50022815349E+02  1.60104848709E+02  1.0571E-13  9.0
        2    1    3    3  500    0  3.29929979433E+01 -3.17884488752E+01 -5.30003069512E+01  7.00576615446E+01  3.00000000000E-03  0.0000E+00  9.0
       -1    1    3    3    0  500 -2.06618663736E+00 -1.06085087152E+02 -3.66532969144E+01  1.12257645811E+02  5.00000000000E-03  0.0000E+00  9.0
  3000022    1    3    3    0    0  1.02133004159E+01 -2.92264459032E+01  4.43075085082E+00  6.76618666504E+01  6.00000000000E+01  0.0000E+00  9.0
       -2    1    4    4    0  504  2.88556983887E+01  4.03051934150E+01  2.77739621402E+01  5.68203566311E+01  3.00000000000E-03  0.0000E+00  9.0
        1    1    4    4  504    0 -5.28593960131E+01  9.07411162939E+01  6.02708217748E+01  1.21081121219E+02  5.00000000000E-03  0.0000E+00  9.0
  3000022    1    4    4    0    0 -1.71364140973E+01  3.60536722213E+01 -2.82194154331E+00  7.21213375003E+01  6.00000000000E+01  0.0000E+00  9.0
</event>
<event>
10    1   3.4312288E-02   4.5040000E+02  -1.0000000E+00   9.4660000E-02
       11   -1    0    0    0    0  0.00000000000E+00  0.00000000000E+00  2.03234424370E+02  2.03234424370E+02  0.00000000000E+00  0.0000E+00  9.0
      -11   -1    0    0    0    0  0.00000000000E+00  0.00000000000E+00 -2.49502696370E+02  2.49502696370E+02  0.00000000000E+00  0.0000E+00  9.0
  3000025    2    1    2    0    0 -1.44550655645E+02 -5.62113553077E+01  1.00719579743E+01  2.23081305281E+02  1.60028797144E+02  4.0966E-12  9.0
 -3000025    2    1    2    0    0  1.44550655645E+02  5.62113553077E+01 -5.63402299833E+01  2.29655815454E+02  1.59727779501E+02  1.7151E-12  9.0
        2    1    3    3  500    0  9.70787972374E+00  1.33360975486E+01  1.27806040875E+00  1.65447234478E+01  3.00000000000E-03  0.0000E+00  9.0
       -1    1    3    3    0  500 -8.92828310339E+01 -4.47824001728E+01  4.27082530379E+01  1.08631865423E+02  5.00000000000E-03  0.0000E+00  9.0
  3000022    1    3    3    0    0 -6.49757043347E+01 -2.47650526828E+01 -3.39143554726E+01  9.79047164099E+01  6.00000000000E+01  0.0000E+00  9.0
       -4    1    4    4    0  504  3.12560353504E+01  4.42570734753E+00  2.32919342302E+01  3.92580738134E+01  1.46817165330E+00  0.0000E+00  9.0
        3    1    4    4  504    0 -5.94096189942E+00  3.73678007769E+01 -2.55542781559E+01  4.56586103080E+01  2.00000000000E-01  0.0000E+00  9.0
  3000022    1    4    4    0    0  1.19235582193E+02  1.44178471837E+01 -5.40778860575E+01  1.44739131332E+02  6.00000000000E+01  0.0000E+00  9.0
</event>
<event>
10    1   3.4312288E-02   4.9230000E+02  -1.0000000E+00   9.3660000E-02
       11   -1    0    0    0    0  0.00000000000E+00  0.00000000000E+00  2.49999998720E+02  2.49999998720E+02  0.00000000000E+00  0.0000E+00  9.0
      -11   -1    0    0    0    0  0.00000000000E+00  0.00000000000E+00 -2.42375406200E+02  2.42375406200E+02  0.00000000000E+00  0.0000E+00  9.0
  3000025    2    1    2    0    0 -1.37396972116E+02 -1.27064278542E+02  6.46760423609E+00  2.46176819090E+02  1.59805937076E+02  7.9169E-13  9.0
 -3000025    2    1    2    0    0  1.37396972116E+02  1.27064278542E+02  1.15698829001E+00  2.46198585823E+02  1.59966078315E+02  1.5301E-12  9.0
        4    1    3    3  500    0 -2.57439424555E+01 -2.22653096661E+01 -3.88780804284E+01  5.16928936459E+01  1.46817165330E+00  0.0000E+00  9.0
       -3    1    3    3    0  500 -3.08760809806E+01 -7.77524561904E+01  3.14138520286E+01  8.93624469206E+01  2.00000000000E-01  0.0000E+00  9.0
  3000022    1    3    3    0    0 -8.07769486788E+01 -2.70465126859E+01  1.39318326349E+01  1.05121478523E+02  6.00000000000E+01  0.0000E+00  9.0
       -4    1    4    4    0  504  5.34413581583E+01  1.10777986996E+02  1.46095339231E+01  1.23868216965E+02  1.46817165330E+00  0.0000E+00  9.0
        3    1    4    4  504    0  5.26665447470E+01  4.09811829254E+00 -6.39912892753E+00  5.32122951973E+01  2.00000000000E-01  0.0000E+00  9.0
  3000022    1    4    4    0    0  3.12890692101E+01  1.21881732522E+01 -7.05341670504E+00  6.91180736600E+01  6.00000000000E+01  0.0000E+00  9.0
</event>
<event>
10    1   3.4312288E-02   4.9000000E+02  -1.0000000E+00   9.3720000E-02
       11   -1    0    0    0    0  0.00000000000E+00  0.00000000000E+00  2.45668017160E+02  2.45668017160E+02  0.00000000000E+00  0.0000E+00  9.0
      -11   -1    0    0    0    0  0.00000000000E+00  0.00000000000E+00 -2.44298110560E+02  2.44298110560E+02  0.00000000000E+00  0.0000E+00  9.0
  3000025    2    1    2    0    0  8.96705961394E+01 -1.21825815949E+02  1.08161371478E+02  2.45150447828E+02  1.59742024987E+02  3.0269E-13  9.0
 -3000025    2    1    2    0    0 -8.96705961394E+01  1.21825815949E+02 -1.06791464888E+02  2.44815679899E+02  1.60149788973E+02  1.3200E-13  9.0
        2    1    3    3  500    0 -1.01263367479E+01 -5.34651730823E+01 -1.84746679117E+00  5.44470437324E+01  3.00000000000E-03  0.0000E+00  9.0
       -1    1    3    3    0  500  4.53296983330E+01 -5.34927946226E+01  7.01401549775E+01  9.91761160399E+01  5.00000000000E-03  0.0000E+00  9.0
  3000022    1    3    3    0    0  5.44672345550E+01 -1.48678482428E+01  3.98686832904E+01  9.15272880553E+01  6.00000000000E+01  0.0000E+00  9.0
       -2    1    4    4    0  504 -4.09620510092E+01  1.22206915263E+01 -3.36508874459E+01  5.44023635438E+01  3.00000000000E-03  0.0000E+00  9.0
        1    1    4    4  504    0 -5.16462658038E+00  7.94004531373E+01  3.42265648136E+00  7.96418227347E+01  5.00000000000E-03  0.0000E+00  9.0
  3000022    1    4    4    0    0 -4.35439185498E+01  3.02046712853E+01 -7.65632339231E+01  1.10771493620E+02  6.00000000000E+01  0.0000E+00  9.0
</event>
<event>
10    1   3.4312288E-02   4.9970000E+02  -1.0000000E+00   9.3500000E-02
       11   -1    0    0    0    0  0.00000000000E+00  0.00000000000E+00  2.49939977930E+02  2.49939977930E+02  0.00000000000E+00  0.0000E+00  9.0
      -11   -1    0    0    0    0  0.00000000000E+00  0.00000000000E+00 -2.49805571160E+02  2.49805571160E+02  0.00000000000E+00  0.0000E+00  9.0
  3000025    2    1    2    0    0  1.56530458105E+02 -1.04018728312E+02  3.93134713196E+01  2.49876157843E+02  1.59908927446E+02  9.7202E-15  9.0
 -3000025    2    1    2    0    0 -1.56530458105E+02  1.04018728312E+02 -3.91790645516E+01  2.49869391249E+02  1.59931339737E+02  8.4188E-13  9.0
        2    1    3    3  500    0  2.61832598513E+00 -3.13596909378E+01  3.93761946738E+01  5.04060568054E+01  3.00000000000E-03  0.0000E+00  9.0
       -1    1    3    3    0  500  9.49463192197E+01 -2.00423703969E+01  1.77803539603E+01  9.86541492105E+01  5.00000000000E-03  0.0000E+00  9.0
  3000022    1    3    3    0    0  5.89658128998E+01 -5.26166669774E+01 -1.78430773143E+01  1.00815951827E+02  6.00000000000E+01  0.0000E+00  9.0
       -2    1    4    4    0  504 -6.23556589793E+01  8.95755954853E+01  1.43958364859E+01  1.10087490799E+02  3.00000000000E-03  0.0000E+00  9.0
        1    1    4    4  504    0 -5.48292612925E+01 -1.97544333465E+00 -1.60529642608E+01  5.71650938669E+01  5.00000000000E-03  0.0000E+00  9.0
  3000022    1    4    4    0    0 -3.93455378331E+01  1.64185761612E+01 -3.75219367768E+01  8.26168065833E+01  6.00000000000E+01  0.0000E+00  9.0
</event>
<event>
10    1   3.4312288E-02   5.0000000E+02  -1.0000000E+00   9.3490000E-02
       11   -1    0    0    0    0  0.00000000000E+00  0.00000000000E+00  2.49999883810E+02  2.49999883810E+02  0.00000000000E+00  0.0000E+00  9.0
      -11   -1    0    0    0    0  0.00000000000E+00  0.00000000000E+00 -2.50000000000E+02  2.50000000000E+02  0.00000000000E+00  0.0000E+00  9.0
  3000025    2    1    2    0    0 -1.08282750594E+02  9.33652113005E+01 -1.28051535753E+02  2.49963242669E+02  1.60131852295E+02  2.3068E-12  9.0
 -3000025    2    1    2    0    0  1.08282750594E+02 -9.33652113005E+01  1.28051419563E+02  2.50036641146E+02  1.60246494833E+02  1.7694E-13  9.0
        4    1    3    3  500    0 -4.54521938045E+01  5.65074836177E+01 -9.28988670453E+00  7.31262958821E+01  1.46817165330E+00  0.0000E+00  9.0
       -3    1    3    3    0  500 -4.89118130091E+01 -1.42560942707E+01 -4.82108973765E+01  7.01422290887E+01  2.00000000000E-01  0.0000E+00  9.0
  3000022    1    3    3    0    0 -1.39187437788E+01  5.11138219533E+01 -7.05507516718E+01  1.06694717697E+02  6.00000000000E+01  0.0000E+00  9.0
       -2    1    4    4    0  504  8.85003764213E+00 -6.03216505049E+01  9.98341110658E+00  6.17793913229E+01  3.00000000000E-03  0.0000E+00  9.0
        1    1    4    4  504    0  2.38930535321E+01  2.44749834332E+01  3.07320564093E+01  4.59821936981E+01  5.00000000000E-03  0.0000E+00  9.0
  3000022    1    4    4    0    0  7.55396594192E+01 -5.75185442288E+01  8.73359520464E+01  1.42275056124E+02  6.00000000000E+01  0.0000E+00  9.0
</event>
<event>
10    1   3.4312288E-02   4.8160000E+02  -1.0000000E+00   9.3910000E-02
       11   -1    0    0    0    0  0.00000000000E+00  0.00000000000E+00  2.49999276140E+02  2.49999276140E+02  0.00000000000E+00  0.0000E+00  9.0
      -11   -1    0    0    0    0  0.00000000000E+00  0.00000000000E+00 -2.31897376460E+02  2.31897376460E+02  0.00000000000E+00  0.0000E+00  9.0
  3000025    2    1    2    0    0  1.34887816459E+02 -1.00009030656E+02  7.37544475682E+01  2.43398838850E+02  1.60021082910E+02  1.1043E-12  9.0
 -3000025    2    1    2    0    0 -1.34887816459E+02  1.00009030656E+02 -5.56525478842E+01  2.38497813747E+02  1.59960844691E+02  7.6004E-13  9.0
       14    1    3    3    0    0  6.11976798380E+01 -8.86387930896E+00  7.28917075035E+01  9.55872658712E+01  0.00000000000E+00  0.0000E+00  9.0
      -13    1    3    3    0    0  1.44662013811E+00 -4.11295274018E+01  4.13683313872E+00  4.13624865673E+01  1.05700000000E-01  0.0000E+00  9.0
  3000022    1    3    3    0    0  7.22435164830E+01 -5.00156239455E+01 -3.27409307431E+00  1.06449086412E+02  6.00000000000E+01  0.0000E+00  9.0
       -2    1    4    4    0  500 -7.01374992553E+01  1.66858112356E+01 -8.03803112812E+00  7.25416780326E+01  3.00000000000E-03  0.0000E+00  9.0
        1    1    4    4  500    0  7.98303506386E+00  4.26585008553E+01  1.47276774774E+01  4.58299143893E+01  5.00000000000E-03  0.0000E+00  9.0
  3000022    1    4    4    0    0 -7.27333522681E+01  4.06647185645E+01 -6.23421942332E+01  1.20126221325E+02  6.00000000000E+01  0.0000E+00  9.0
</event>
<event>
10    1   3.4312288E-02   4.9480000E+02  -1.0000000E+00   9.3610000E-02
       11   -1    0    0    0    0  0.00000000000E+00  0.00000000000E+00  2.45582082590E+02  2.45582082590E+02  0.00000000000E+00  0.0000E+00  9.0
      -11   -1    0    0    0    0  0.00000000000E+00  0.00000000000E+00 -2.49280092460E+02  2.49280092460E+02  0.00000000000E+00  0.0000E+00  9.0
  3000025    2    1    2    0    0 -1.60211108200E+02  3.50096570247E+01  9.15438187856E+01  2.46742846384E+02  1.60026517203E+02  2.3990E-12  9.0
 -3000025    2    1    2    0    0  1.60211108200E+02 -3.50096570247E+01 -9.52418286536E+01  2.48119328676E+02  1.59996625157E+02  6.9185E-13  9.0
        2    1    3    3  500    0 -8.05350102304E+01  5.85642462112E+00  4.18150584272E+01  9.09323083531E+01  3.00000000000E-03  0.0000E+00  9.0
       -1    1    3    3    0  500 -8.03620182848E+00  5.05683495591E+01  1.07436053721E+01  5.23179089639E+01  5.00000000000E-03  0.0000E+00  9.0
  3000022    1    3    3    0    0 -7.16398961413E+01 -2.14151171557E+01  3.89851549863E+01  1.03492629067E+02  6.00000000000E+01  0.0000E+00  9.0
       -4    1    4    4    0  504  1.07982467891E+01 -3.71406598587E+01  1.75333613546E+01  4.24924115207E+01  1.46817165330E+00  0.0000E+00  9.0
        3    1    4    4  504    0  3.83902529754E+01 -4.75500126010E+00 -5.35274369054E+01  6.60427744887E+01  2.00000000000E-01  0.0000E+00  9.0
  3000022    1    4    4    0    0  1.11022608436E+02  6.88600409394E+00 -5.92477531033E+01  1.39584142667E+02  6.00000000000E+01  0.0000E+00  9.0
</event>
<event>
10    1   3.4312288E-02   4.9270000E+02  -1.0000000E+00   9.3650000E-02
       11   -1    0    0    0    0  0.00000000000E+00  0.00000000000E+00  2.48751108040E+02  2.48751108040E+02  0.00000000000E+00  0.0000E+00  9.0
      -11   -1    0    0    0    0  0.00000000000E+00  0.00000000000E+00 -2.43926628680E+02  2.43926628680E+02  0.00000000000E+00  0.0000E+00  9.0
  3000025    2    1    2    0    0  1.81865890870E+02 -3.96875613976E+01  2.27266889827E+01  2.46483071392E+02  1.59959673978E+02  2.5683E-12  9.0
 -3000025    2    1    2    0    0 -1.81865890870E+02  3.96875613976E+01 -1.79022096177E+01  2.46194665324E+02  1.60128134109E+02  4.3660E-13  9.0
        4    1    3    3  500    0  9.56447081191E+01 -7.15893507854E+00 -1.09817095402E+01  9.65500596327E+01  1.46817165330E+00  0.0000E+00  9.0
       -3    1    3    3    0  500 -1.49172894910E+01 -3.13959939302E+00 -1.29960867065E+01  2.00329947783E+01  2.00000000000E-01  0.0000E+00  9.0
  3000022    1    3    3    0    0  1.01138472242E+02 -2.93890269260E+01  4.67044852295E+01  1.29900016981E+02  6.00000000000E+01  0.0000E+00  9.0
      -14    1    4    4    0    0  1.00653220495E+01 -6.70467949817E+00  9.38626361070E+00  1.53089966916E+01  0.00000000000E+00  0.0000E+00  9.0
       13    1    4    4    0    0 -9.42725763594E+01  6.24060216065E+01 -2.09483452300E+01  1.14981192056E+02  1.05700000000E-01  0.0000E+00  9.0
  3000022    1    4    4    0    0 -9.76586365599E+01 -1.60137807108E+01 -6.34012799826E+00  1.15904476576E+02  6.00000000000E+01  0.0000E+00  9.0
</event>
<event>
10    1   3.4312288E-02   4.6440000E+02  -1.0000000E+00   9.4320000E-02
       11   -1    0    0    0    0  0.00000000000E+00  0.00000000000E+00  2.46592842800E+02  2.46592842800E+02  0.00000000000E+00  0.0000E+00  9.0
      -11   -1    0    0    0    0  0.00000000000E+00  0.00000000000E+00 -2.18603202510E+02  2.18603202510E+02  0.00000000000E+00  0.0000E+00  9.0
  3000025    2    1    2    0    0 -9.99262110076E+01 -1.28899082036E+02 -2.83342213351E+01  2.29930796918E+02  1.59577950472E+02  5.1872E-13  9.0
 -3000025    2    1    2    0    0  9.99262110076E+01  1.28899082036E+02  5.63238616311E+01  2.35265248392E+02  1.59928542531E+02  2.5540E-12  9.0
        2    1    3    3  500    0 -5.27124001099E+01 -3.70339596434E+01 -5.25791033315E+01  8.31545152614E+01  3.00000000000E-03  0.0000E+00  9.0
       -1    1    3    3    0  500  1.60570761007E+01 -1.67261389240E+00  1.31757364150E+01  2.08381233611E+01  5.00000000000E-03  0.0000E+00  9.0
  3000022    1    3    3    0    0 -6.32708869983E+01 -9.01925084996E+01  1.10691455814E+01  1.25938158296E+02  6.00000000000E+01  0.0000E+00  9.0
       -4    1    4    4    0  504 -1.05760594106E+01  6.98325709468E+01  4.39527366681E+01  8.32011994284E+01  1.46817165330E+00  0.0000E+00  9.0
        3    1    4    4  504    0  2.41398725243E+01 -7.41264759303E+00 -6.87873275444E+00  2.61732259024E+01  2.00000000000E-01  0.0000E+00  9.0
  3000022    1    4    4    0    0  8.63623978934E+01  6.64791586829E+01  1.92498577173E+01  1.25890823062E+02  6.00000000000E+01  0.0000E+00  9.0
</event>
<event>
10    1   3.4312288E-02   4.9740000E+02  -1.0000000E+00   9.3550000E-02
       11   -1    0    0    0    0  0.00000000000E+00  0.00000000000E+00  2.50000000000E+02  2.50000000000E+02  0.00000000000E+00  0.0000E+00  9.0
      -11   -1    0    0    0    0  0.00000000000E+00  0.00000000000E+00 -2.47449669370E+02  2.47449669370E+02  0.00000000000E+00  0.0000E+00  9.0
  3000025    2    1    2    0    0 -7.56578959555E+01  1.67497389442E+02 -4.58307531611E+01  2.48855587180E+02  1.61397498881E+02  2.1858E-12  9.0
 -3000025    2    1    2    0    0  7.56578959555E+01 -1.67497389442E+02  4.83810837881E+01  2.48594082186E+02  1.60246047499E+02  3.3201E-13  9.0
        4    1    3    3  500    0 -5.48776710983E+01  3.31910246619E+01 -2.03070853804E+01  6.72884547893E+01  1.46817165330E+00  0.0000E+00  9.0
       -3    1    3    3    0  500  4.77694019074E+00  1.00543656067E+02 -3.69919521572E+01  1.07239407203E+02  2.00000000000E-01  0.0000E+00  9.0
  3000022    1    3    3    0    0 -2.55571650478E+01  3.37627087130E+01  1.14682843765E+01  7.43277251869E+01  6.00000000000E+01  0.0000E+00  9.0
      -14    1    4    4    0    0  5.42915696277E+01 -3.55979528372E+01 -1.45418729386E+01  6.65301048203E+01  0.00000000000E+00  0.0000E+00  9.0
       13    1    4    4    0    0  2.59138508570E+01 -9.80257027566E+01  4.35183436471E+01  1.10337769931E+02  1.05700000000E-01  0.0000E+00  9.0
  3000022    1    4    4    0    0 -4.54752452891E+00 -3.38737338486E+01  1.94046130798E+01  7.17262074347E+01  6.00000000000E+01  0.0000E+00  9.0
</event>
<event>
10    1   3.4312288E-02   4.9510000E+02  -1.0000000E+00   9.3600000E-02
       11   -1    0    0    0    0  0.00000000000E+00  0.00000000000E+00  2.50000000000E+02  2.50000000000E+02  0.00000000000E+00  0.0000E+00  9.0
      -11   -1    0    0    0    0  0.00000000000E+00  0.00000000000E+00 -2.45119584920E+02  2.45119584920E+02  0.00000000000E+00  0.0000E+00  9.0
  3000025    2    1    2    0    0 -1.63031769071E+02 -3.63650216353E+01 -8.51893974912E+01  2.46680967437E+02  1.60288782283E+02  2.9905E-12  9.0
 -3000025    2    1    2    0    0  1.63031769071E+02  3.63650216353E+01  9.00698125742E+01  2.48438617477E+02  1.60335283053E+02  2.1967E-12  9.0
        2    1    3    3  500    0  9.66234786360E+00 -3.78756749153E+00 -3.59489612722E+01  3.74170343466E+01  3.00000000000E-03  0.0000E+00  9.0
       -1    1    3    3    0  500 -5.62047289248E+01  1.03982988728E+01  1.19536515468E+01  5.83950852663E+01  5.00000000000E-03  0.0000E+00  9.0
  3000022    1    3    3    0    0 -1.16489388010E+02 -4.29757530161E+01 -6.11940877658E+01  1.50868847824E+02  6.00000000000E+01  0.0000E+00  9.0
      -14    1    4    4    0    0  2.23643498899E+01  5.10294681031E+01 -4.28279228779E+00  5.58794512381E+01  0.00000000000E+00  0.0000E+00  9.0
       13    1    4    4    0    0  2.02444864101E+01 -1.36421482094E+01  4.12098298454E+01  4.78978985567E+01  1.05700000000E-01  0.0000E+00  9.0
  3000022    1    4    4    0    0  1.20422932771E+02 -1.02229825846E+00  5.31427750164E+01  1.44661267682E+02  6.00000000000E+01  0.0000E+00  9.0
</event>
<event>
10    1   3.4312288E-02   4.8920000E+02  -1.0000000E+00   9.3730000E-02
       11   -1    0    0    0    0  0.00000000000E+00  0.00000000000E+00  2.39366036280E+02  2.39366036280E+02  0.00000000000E+00  0.0000E+00  9.0
      -11   -1    0    0    0    0  0.00000000000E+00  0.00000000000E+00 -2.49947951280E+02  2.49947951280E+02  0.00000000000E+00  0.0000E+00  9.0
  3000025    2    1    2    0    0  1.42997315848E+02 -1.01348212875E+01 -1.21305080813E+02  2.46842519017E+02  1.60204118616E+02  6.3512E-13  9.0
 -3000025    2    1    2    0    0 -1.42997315848E+02  1.01348212875E+01  1.10723165813E+02  2.42471468540E+02  1.61188854038E+02  1.6184E-12  9.0
        4    1    3    3  500    0  1.29231011114E+01 -2.21022151908E+00  1.97360458239E+01  2.37393903516E+01  1.46817165330E+00  0.0000E+00  9.0
       -3    1    3    3    0  500  2.71874292135E+01 -3.02836790977E+01 -7.44008178989E+01  8.48043585611E+01  2.00000000000E-01  0.0000E+00  9.0
  3000022    1    3    3    0    0  1.02886785522E+02  2.23590793296E+01 -6.66403087388E+01  1.38298770104E+02  6.00000000000E+01  0.0000E+00  9.0
       -2    1    4    4    0  504 -2.29407840100E+01 -1.60530957196E+01 -1.29364237525E+01  3.08436787961E+01  3.00000000000E-03  0.0000E+00  9.0
        1    1    4    4  504    0 -1.06254895729E+02  2.81469672534E+01  8.43670635376E+01  1.38564627762E+02  5.00000000000E-03  0.0000E+00  9.0
  3000022    1    4    4    0    0 -1.38016361098E+01 -1.95905024663E+00  3.92925260287E+01  7.30631619826E+01  6.00000000000E+01  0.0000E+00  9.0
</event>
<event>
10    1   3.4312288E-02   4.5880000E+02  -1.0000000E+00   9.4450000E-02
       11   -1    0    0    0    0  0.00000000000E+00  0.00000000000E+00  2.49943821870E+02  2.49943821870E+02  0.00000000000E+00  0.0000E+00  9.0
      -11   -1    0    0    0    0  0.00000000000E+00  0.00000000000E+00 -2.10527758020E+02  2.10527758020E+02  0.00000000000E+00  0.0000E+00  9.0
  3000025    2    1    2    0    0  1.03629933301E+02  1.58060002519E+01  1.46764412226E+02  2.41102682577E+02  1.60005369066E+02  1.0141E-12  9.0
 -3000025    2    1    2    0    0 -1.03629933301E+02 -1.58060002519E+01 -1.07348348376E+02  2.19368897318E+02  1.60031410953E+02  4.0585E-13  9.0
        4    1    3    3  500    0  4.99149917359E+01 -2.90294023461E+01  1.29410935433E+01  5.91932431167E+01  1.46817165330E+00  0.0000E+00  9.0
       -3    1    3    3    0  500  1.23593919166E+01  8.80424766206E-01  8.05734160104E+01  8.15208260747E+01  2.00000000000E-01  0.0000E+00  9.0
  3000022    1    3    3    0    0  4.13555496487E+01  4.39549778317E+01  5.32499026726E+01  1.00388613386E+02  6.00000000000E+01  0.0000E+00  9.0
       -2    1    4    4    0  504 -9.67641355514E-02  1.93751723044E+01 -6.80482051896E+01  7.07528437849E+01  3.00000000000E-03  0.0000E+00  9.0
        1    1    4    4  504    0 -2.07195615705E+01 -3.75761875744E+00  1.75980565995E+01  2.74428779737E+01  5.00000000000E-03  0.0000E+00  9.0
  3000022    1    4    4    0    0 -8.28136075956E+01 -3.14235537993E+01 -5.68981997856E+01  1.21173175560E+02  6.00000000000E+01  0.0000E+00  9.0
</event>
<event>
10    1   3.4312288E-02   4.9290000E+02  -1.0000000E+00   9.3650000E-02
       11   -1    0    0    0    0  0.00000000000E+00  0.00000000000E+00  2.43006347110E+02  2.43006347110E+02  0.00000000000E+00  0.0000E+00  9.0
      -11   -1    0    0    0    0  0.00000000000E+00  0.00000000000E+00 -2.49989351680E+02  2.49989351680E+02  0.00000000000E+00  0.0000E+00  9.0
  3000025    2    1    2    0    0 -1.86550050801E+02  1.05349438913E+01  1.26649090632E+01  2.46383479743E+02  1.60101569862E+02  6.8484E-12  9.0
 -3000025    2    1    2    0    0  1.86550050801E+02 -1.05349438913E+01 -1.96479136332E+01  2.46612219049E+02  1.59748676293E+02  9.8542E-13  9.0
        2    1    3    3  500    0 -2.35034412997E+01  1.41254995166E+00 -3.68858886050E+01  4.37604368977E+01  3.00000000000E-03  0.0000E+00  9.0
       -1    1    3    3    0  500 -1.11630454040E+02  2.61254061962E+01  1.89683327062E+01  1.16205390532E+02  5.00000000000E-03  0.0000E+00  9.0
  3000022    1    3    3    0    0 -5.14161554616E+01 -1.70030122572E+01  3.05824649621E+01  8.64176523138E+01  6.00000000000E+01  0.0000E+00  9.0
      -14    1    4    4    0    0  8.48932758505E+01 -4.22299578027E+01  7.79833029204E+00  9.51370147523E+01  0.00000000000E+00  0.0000E+00  9.0
       13    1    4    4    0    0  5.95020377073E+01  4.37379990439E+01 -5.79603861138E+00  7.40750314732E+01  1.05700000000E-01  0.0000E+00  9.0
  3000022    1    4    4    0    0  4.21547372428E+01 -1.20429851328E+01 -2.16502053136E+01  7.74001728231E+01  6.00000000000E+01  0.0000E+00  9.0
</event>
<event>
10    1   3.4312288E-02   4.6680000E+02  -1.0000000E+00   9.4260000E-02
       11   -1    0    0    0    0  0.00000000000E+00  0.00000000000E+00  2.47650684610E+02  2.47650684610E+02  0.00000000000E+00  0.0000E+00  9.0
      -11   -1    0    0    0    0  0.00000000000E+00  0.00000000000E+00 -2.19947757530E+02  2.19947757530E+02  0.00000000000E+00  0.0000E+00  9.0
  3000025    2    1    2    0    0 -1.29021545797E+02  1.08219079198E+02  3.58450645486E+01  2.35115736422E+02  1.60114373116E+02  1.3519E-12  9.0
 -3000025    2    1    2    0    0  1.29021545797E+02 -1.08219079198E+02 -8.14213746998E+00  2.32482705705E+02  1.60074937661E+02  1.2899E-12  9.0
        2    1    3    3  500    0  8.68428859397E+00  2.78584054767E+01  3.46922778521E-01  2.91826658909E+01  3.00000000000E-03  0.0000E+00  9.0
       -1    1    3    3    0  500 -1.17034505381E+02  6.44862860953E+01  4.90042694779E+00  1.33714512127E+02  5.00000000000E-03  0.0000E+00  9.0
  3000022    1    3    3    0    0 -2.06713290089E+01  1.58743876253E+01  3.05977148223E+01  7.22185584031E+01  6.00000000000E+01  0.0000E+00  9.0
       -2    1    4    4    0  504  7.53982183258E+01 -7.90424591221E+01  1.36880200062E+01  1.10090706108E+02  3.00000000000E-03  0.0000E+00  9.0
        1    1    4    4  504    0 -1.80881279394E+01 -1.81003757796E+01 -1.00942252527E+01  2.75081330549E+01  5.00000000000E-03  0.0000E+00  9.0
  3000022    1    4    4    0    0  7.17114554108E+01 -1.10762442961E+01 -1.17359322240E+01  9.48838665422E+01  6.00000000000E+01  0.0000E+00  9.0
</event>
<event>
10    1   3.4312288E-02   4.9200000E+02  -1.0000000E+00   9.3670000E-02
       11   -1    0    0    0    0  0.00000000000E+00  0.00000000000E+00  2.47785213110E+02  2.47785213110E+02  0.00000000000E+00  0.0000E+00  9.0
      -11   -1    0    0    0    0  0.00000000000E+00  0.00000000000E+00 -2.44190466410E+02  2.44190466410E+02  0.00000000000E+00  0.0000E+00  9.0
  3000025    2    1    2    0    0  1.41799958328E+02  8.77963401880E+01  8.60073470498E+01  2.46595060625E+02  1.59988857880E+02  1.1731E-12  9.0
 -3000025    2    1    2    0    0 -1.41799958328E+02 -8.77963401880E+01 -8.24126003488E+01  2.45380618898E+02  1.60013705358E+02  1.5342E-12  9.0
       14    1    3    3    0    0  4.20794901154E+01 -1.13946011159E+01 -1.33242607516E+01  4.55857033239E+01  0.00000000000E+00  0.0000E+00  9.0
      -13    1    3    3    0    0  7.87175314915E+01  5.03974005782E+01  6.48866289143E+01  1.13783274401E+02  1.05700000000E-01  0.0000E+00  9.0
  3000022    1    3    3    0    0  2.10029367212E+01  4.87935407256E+01  3.44449788868E+01  8.72260828994E+01  6.00000000000E+01  0.0000E+00  9.0
       -2    1    4    4    0  500 -6.58248576229E+01 -7.80987081891E+01 -3.39609201829E+01  1.07636723336E+02  3.00000000000E-03  0.0000E+00  9.0
        1    1    4    4  500    0  1.65441574785E+01  5.78497705601E+00 -5.14610960069E+00  1.82662961553E+01  5.00000000000E-03  0.0000E+00  9.0
  3000022    1    4    4    0    0 -9.25192581834E+01 -1.54826090538E+01 -4.33055705651E+01  1.19477599406E+02  6.00000000000E+01  0.0000E+00  9.0
</event>
<event>
10    1   3.4312288E-02   4.8780000E+02  -1.0000000E+00   9.3760000E-02
       11   -1    0    0    0    0  0.00000000000E+00  0.00000000000E+00  2.38263503750E+02  2.38263503750E+02  0.00000000000E+00  0.0000E+00  9.0
      -11   -1    0    0    0    0  0.00000000000E+00  0.00000000000E+00 -2.49686975500E+02  2.49686975500E+02  0.00000000000E+00  0.0000E+00  9.0
  3000025    2    1    2    0    0 -1.76022711194E+02  2.59276796657E+01  4.16535969592E+01  2.42873740019E+02  1.59988724673E+02  6.2577E-13  9.0
 -3000025    2    1    2    0    0  1.76022711194E+02 -2.59276796657E+01 -5.30770687102E+01  2.45076739234E+02  1.59966226003E+02  1.5037E-12  9.0
        2    1    3    3  500    0 -8.74837683491E+01  1.61483692899E+01  1.22940570821E+01  8.98071456167E+01  3.00000000000E-03  0.0000E+00  9.0
       -1    1    3    3    0  500  5.04198051093E+00  3.10480721893E+01  2.43449762332E+01  3.97753975083E+01  5.00000000000E-03  0.0000E+00  9.0
  3000022    1    3    3    0    0 -9.35809233557E+01 -2.12687618141E+01  5.01456364370E+00  1.13291196894E+02  6.00000000000E+01  0.0000E+00  9.0
       -2    1    4    4    0  504 -2.65210386516E+00  1.54534203144E+01  1.59290383441E+01  2.23511996523E+01  3.00000000000E-03  0.0000E+00  9.0
        1    1    4    4  504    0  6.01624058614E+01 -1.04704163424E+01 -6.06784717117E+01  8.60872908836E+01  5.00000000000E-03  0.0000E+00  9.0
  3000022    1    4    4    0    0  1.18512409198E+02 -3.09106836372E+01 -8.32763534168E+00  1.36638248698E+02  6.00000000000E+01  0.0000E+00  9.0
</event>
<event>
10    1   3.4312288E-02   4.9990000E+02  -1.0000000E+00   9.3490000E-02
       11   -1    0    0    0    0  0.00000000000E+00  0.00000000000E+00  2.50000000000E+02  2.50000000000E+02  0.00000000000E+00  0.0000E+00  9.0
      -11   -1    0    0    0    0  0.00000000000E+00  0.00000000000E+00 -2.49904921410E+02  2.49904921410E+02  0.00000000000E+00  0.0000E+00  9.0
  3000025    2    1    2    0    0  1.35021595171E+02 -1.14327667567E+02  7.49633248892E+01  2.49985288793E+02  1.59910905822E+02  6.6576E-13  9.0
 -3000025    2    1    2    0    0 -1.35021595171E+02  1.14327667567E+02 -7.48682463002E+01  2.49919632625E+02  1.59852812717E+02  2.7859E-12  9.0
        2    1    3    3  500    0  2.07610401378E+01 -7.10951679757E+01  4.38350065021E+00  7.41940616494E+01  3.00000000000E-03  0.0000E+00  9.0
       -1    1    3    3    0  500  8.78213795854E+01 -3.55822562067E+01  4.62263098766E+01  1.05430372374E+02  5.00000000000E-03  0.0000E+00  9.0
  3000022    1    3    3    0    0  2.64391754482E+01 -7.65024338506E+00  2.43535143633E+01  7.03608547708E+01  6.00000000000E+01  0.0000E+00  9.0
       -4    1    4    4    0  504 -5.63433910223E+01  8.28903696112E+00 -7.74914541269E+00  5.74933963883E+01  1.46817165330E+00  0.0000E+00  9.0
        3    1    4    4  504    0  2.34600543763E+01  2.75541439381E+01 -2.35748319514E+00  3.62657238521E+01  2.00000000000E-01  0.0000E+00  9.0
  3000022    1    4    4    0    0 -1.02138258524E+02  7.84844866673E+01 -6.47616176926E+01  1.56160512384E+02  6.00000000000E+01  0.0000E+00  9.0
</event>
<event>
10    1   3.4312288E-02   4.7570000E+02  -1.0000000E+00   9.4040000E-02
       11   -1    0    0    0    0  0.00000000000E+00  0.00000000000E+00  2.49999540390E+02  2.49999540390E+02  0.00000000000E+00  0.0000E+00  9.0
      -11   -1    0    0    0    0  0.00000000000E+00  0.00000000000E+00 -2.26305742020E+02  2.26305742020E+02  0.00000000000E+00  0.0000E+00  9.0
  3000025    2    1    2    0    0 -1.55465208098E+02 -7.09241160128E+01  5.43833646514E+01  2.40266962796E+02  1.59909355259E+02  1.9028E-13  9.0
 -3000025    2    1    2    0    0  1.55465208098E+02  7.09241160128E+01 -3.06895662774E+01  2.36038319616E+02  1.59914282313E+02  1.8085E-13  9.0
        4    1    3    3  500    0 -4.28309896580E+01 -7.95168928448E+01  2.77413379078E+01  9.44942711475E+01  1.46817165330E+00  0.0000E+00  9.0
       -3    1    3    3    0  500 -3.73735544180E+01  5.86044842091E+00 -1.52193749125E+01  4.07774054870E+01  2.00000000000E-01  0.0000E+00  9.0
  3000022    1    3    3    0    0 -7.52606640225E+01  2.73232841106E+00  4.18614016561E+01  1.04995286162E+02  6.00000000000E+01  0.0000E+00  9.0
      -14    1    4    4    0    0  1.05874339887E+02  3.14869105147E+01 -5.23053148013E+01  1.22215577308E+02  0.00000000000E+00  0.0000E+00  9.0
       13    1    4    4    0    0 -4.82478277956E+00 -1.34181910595E+01  7.39434293961E+00  1.60628098469E+01  1.05700000000E-01  0.0000E+00  9.0
  3000022    1    4    4    0    0  5.44156509908E+01  5.28553965575E+01  1.42214055843E+01  9.77599324611E+01  6.00000000000E+01  0.0000E+00  9.0
</event>
<event>
10    1   3.4312288E-02   4.7980000E+02  -1.0000000E+00   9.3950000E-02
       11   -1    0    0    0    0  0.00000000000E+00  0.00000000000E+00  2.47397830190E+02  2.47397830190E+02  0.00000000000E+00  0.0000E+00  9.0
      -11   -1    0    0    0    0  0.00000000000E+00  0.00000000000E+00 -2.32600107050E+02  2.32600107050E+02  0.00000000000E+00  0.0000E+00  9.0
  3000025    2    1    2    0    0  8.55281045352E+01 -1.28467804696E+02 -8.27929906952E+01  2.37231729685E+02  1.60016189032E+02  1.5358E-12  9.0
 -3000025    2    1    2    0    0 -8.55281045352E+01  1.28467804696E+02  9.75907138402E+01  2.42766207561E+02  1.59976406375E+02  2.3377E-12  9.0
        4    1    3    3  500    0 -3.83789823506E+00 -1.25832069174E+01 -5.74125583424E+01  5.89187910824E+01  1.46817165330E+00  0.0000E+00  9.0
       -3    1    3    3    0  500  4.21153498020E+00 -5.13106048340E+01  5.90859192006E+00  5.18214883402E+01  2.00000000000E-01  0.0000E+00  9.0
  3000022    1    3    3    0    0  8.51544677912E+01 -6.45739929450E+01 -3.12890242730E+01  1.26491450263E+02  6.00000000000E+01  0.0000E+00  9.0
       -2    1    4    4    0  504 -2.84427874304E+01  6.66579036059E+00 -2.12207243212E+01  3.61073963013E+01  3.00000000000E-03  0.0000E+00  9.0
        1    1    4    4  504    0 -5.72312513972E+01  6.19754527322E+01  5.87934204800E+01  1.02825284802E+02  5.00000000000E-03  0.0000E+00  9.0
  3000022    1    4    4    0    0  1.45934293238E-01  5.98265616047E+01  6.00180176826E+01  1.03833526458E+02  6.00000000000E+01  0.0000E+00  9.0
</event>
<event>
10    1   3.4312288E-02   4.9820000E+02  -1.0000000E+00   9.3530000E-02
       11   -1    0    0    0    0  0.00000000000E+00  0.00000000000E+00  2.49205601720E+02  2.49205601720E+02  0.00000000000E+00  0.0000E+00  9.0
      -11   -1    0    0    0    0  0.00000000000E+00  0.00000000000E+00 -2.49026138430E+02  2.49026138430E+02  0.00000000000E+00  0.0000E+00  9.0
  3000025    2    1    2    0    0  4.54240010413E+01  1.74751241228E+02  6.21620707435E+01  2.49130840156E+02  1.60002238411E+02  1.3627E-12  9.0
 -3000025    2    1    2    0    0 -4.54240010413E+01 -1.74751241228E+02 -6.19826074545E+01  2.49100899995E+02  1.60025243541E+02  2.1783E-12  9.0
        2    1    3    3  500    0  2.22395609344E+00  3.96139045406E+01 -2.92095472938E+01  4.92687028017E+01  3.00000000000E-03  0.0000E+00  9.0
       -1    1    3    3    0  500  5.37313347189E+01  5.66191855007E+01  3.42791819824E+01  8.52516911259E+01  5.00000000000E-03  0.0000E+00  9.0
  3000022    1    3    3    0    0 -1.05312897703E+01  7.85181511866E+01  5.70924360550E+01  1.14610446228E+02  6.00000000000E+01  0.0000E+00  9.0
       -4    1    4    4    0  504 -2.57725131574E+01 -5.60474332281E-01 -1.04788448964E+01  2.78657188009E+01  1.46817165330E+00  0.0000E+00  9.0
        3    1    4    4  504    0 -8.05190567887E+00 -1.28147024985E+02  1.06049021203E+00  1.28404274995E+02  2.00000000000E-01  0.0000E+00  9.0
  3000022    1    4    4    0    0 -1.15995822048E+01 -4.60437419088E+01 -5.25642527695E+01  9.28309061978E+01  6.00000000000E+01  0.0000E+00  9.0
</event>
<event>
10    1   3.4312288E-02   4.5280000E+02  -1.0000000E+00   9.4600000E-02
       11   -1    0    0    0    0  0.00000000000E+00  0.00000000000E+00  2.41173555960E+02  2.41173555960E+02  0.00000000000E+00  0.0000E+00  9.0
      -11   -1    0    0    0    0  0.00000000000E+00  0.00000000000E+00 -2.12547810970E+02  2.12547810970E+02  0.00000000000E+00  0.0000E+00  9.0
  3000025    2    1    2    0    0 -1.41579841983E+01 -1.24095930129E+02 -8.59869248728E+01  2.20414460217E+02  1.59964166714E+02  2.4650E-12  9.0
 -3000025    2    1    2    0    0  1.41579841983E+01  1.24095930129E+02  1.14612669860E+02  2.33306906716E+02  1.60299096186E+02  1.1087E-12  9.0
        4    1    3    3  500    0 -3.16370542775E+00  2.13023168502E+00  8.29516649629E+00  9.24728253435E+00  1.46817165330E+00  0.0000E+00  9.0
       -3    1    3    3    0  500  9.45595592616E+00 -5.33553892156E+01  2.33161243939E+01  5.89906290658E+01  2.00000000000E-01  0.0000E+00  9.0
  3000022    1    3    3    0    0 -2.04502346965E+01 -7.28707725983E+01 -1.17598215763E+02  1.52176548617E+02  6.00000000000E+01  0.0000E+00  9.0
       -2    1    4    4    0  504 -1.72104723357E+01  3.50994386964E+00  6.62140384401E+01  6.85041528634E+01  3.00000000000E-03  0.0000E+00  9.0
        1    1    4    4  504    0  7.33554375414E+00  8.01322647352E+01  3.32286531738E+01  8.70582188567E+01  5.00000000000E-03  0.0000E+00  9.0
  3000022    1    4    4    0    0  2.40329127795E+01  4.04537215230E+01  1.51699782465E+01  7.77445349959E+01  6.00000000000E+01  0.0000E+00  9.0
</event>
<event>
10    1   3.4312288E-02   4.5890000E+02  -1.0000000E+00   9.4450000E-02
       11   -1    0    0    0    0  0.00000000000E+00  0.00000000000E+00  2.49215230190E+02  2.49215230190E+02  0.00000000000E+00  0.0000E+00  9.0
      -11   -1    0    0    0    0  0.00000000000E+00  0.00000000000E+00 -2.11257728720E+02  2.11257728720E+02  0.00000000000E+00  0.0000E+00  9.0
  3000025    2    1    2    0    0 -3.32364470497E+00 -1.55275567315E+02  7.33686893737E+01  2.34646189238E+02  1.59857189780E+02  1.1652E-12  9.0
 -3000025    2    1    2    0    0  3.32364470497E+00  1.55275567315E+02 -3.54111879087E+01  2.25826769679E+02  1.60069451350E+02  2.2751E-12  9.0
        4    1    3    3  500    0  2.90847596200E+00 -4.99176440346E+01  3.98674659041E+01  6.39671852124E+01  1.46817165330E+00  0.0000E+00  9.0
       -3    1    3    3    0  500  1.47254142885E+00 -4.32519766969E+01 -3.85442240773E+01  5.79534216088E+01  2.00000000000E-01  0.0000E+00  9.0
  3000022    1    3    3    0    0 -7.70466209582E+00 -6.21059465840E+01  7.20454475458E+01  1.12725582417E+02  6.00000000000E+01  0.0000E+00  9.0
       -4    1    4    4    0  504 -3.78743497540E+00 -1.35772697656E+01  5.54063231241E+00  1.52164730607E+01  1.46817165330E+00  0.0000E+00  9.0
        3    1    4    4  504    0 -3.91348469218E+00  1.11632043457E+02  1.08514628146E+01  1.12226657858E+02  2.00000000000E-01  0.0000E+00  9.0
  3000022    1    4    4    0    0  1.10245643726E+01  5.72207936242E+01 -5.18032830356E+01  9.83836387610E+01  6.00000000000E+01  0.0000E+00  9.0
</event>
<event>
10    1   3.4312288E-02   5.0000000E+02  -1.0000000E+00   9.3490000E-02
       11   -1    0    0    0    0  0.00000000000E+00  0.00000000000E+00  2.49950148870E+02  2.49950148870E+02  0.00000000000E+00  0.0000E+00  9.0
      -11   -1    0    0    0    0  0.00000000000E+00  0.00000000000E+00 -2.49999996500E+02  2.49999996500E+02  0.00000000000E+00  0.0000E+00  9.0
  3000025    2    1    2    0    0 -3.31939628071E+01  8.27819611419E+01  1.69887687643E+02  2.49819284836E+02  1.59978612339E+02  1.4531E-12  9.0
 -3000025    2    1    2    0    0  3.31939628071E+01 -8.27819611419E+01 -1.69937535273E+02  2.50130860534E+02  1.60411936088E+02  8.0003E-13  9.0
        2    1    3    3  500    0 -2.31827423887E+01  3.68880631645E+01  7.45451550938E+01  8.63432041659E+01  3.00000000000E-03  0.0000E+00  9.0
       -1    1    3    3    0  500  3.08870384867E+01  2.93670319846E+01  1.56343126671E-01  4.26199035926E+01  5.00000000000E-03  0.0000E+00  9.0
  3000022    1    3    3    0    0 -4.08982589052E+01  1.65268659931E+01  9.51861894231E+01  1.20856177078E+02  6.00000000000E+01  0.0000E+00  9.0
       -4    1    4    4    0  504  3.61274589816E+01  1.47015178451E+00 -1.08231292877E+02  1.14120650737E+02  1.46817165330E+00  0.0000E+00  9.0
        3    1    4    4  504    0 -1.38621441689E+01 -1.21818678270E+01  6.46955043017E+00  1.95563807358E+01  2.00000000000E-01  0.0000E+00  9.0
  3000022    1    4    4    0    0  1.09286479952E+01 -7.20702450984E+01 -6.81757928254E+01  1.16453829061E+02  6.00000000000E+01  0.0000E+00  9.0
</event>
<event>
10    1   3.4312288E-02   5.0000000E+02  -1.0000000E+00   9.3490000E-02
       11   -1    0    0    0    0  0.00000000000E+00  0.00000000000E+00  2.49999898830E+02  2.49999898830E+02  0.00000000000E+00  0.0000E+00  9.0
      -11   -1    0    0    0    0  0.00000000000E+00  0.00000000000E+00 -2.49999999920E+02  2.49999999920E+02  0.00000000000E+00  0.0000E+00  9.0
  3000025    2    1    2    0    0  6.26748985285E+01  1.76442585539E+02  4.31001108412E+01  2.50022626703E+02  1.59979890647E+02  1.2696E-12  9.0
 -3000025    2    1    2    0    0 -6.26748985285E+01 -1.76442585539E+02 -4.31002119292E+01  2.49977272052E+02  1.59908972159E+02  5.3587E-13  9.0
        4    1    3    3  500    0 -1.65087441404E+01  4.00900151323E+01  1.54288048779E+01  4.60429309923E+01  1.46817165330E+00  0.0000E+00  9.0
       -3    1    3    3    0  500  6.41755324884E+01  6.63507626325E+01 -2.64492177876E+01  9.60235585346E+01  2.00000000000E-01  0.0000E+00  9.0
  3000022    1    3    3    0    0  1.50081101805E+01  7.00018077742E+01  5.41205237508E+01  1.07956137176E+02  6.00000000000E+01  0.0000E+00  9.0
       -4    1    4    4    0  504 -2.04753053838E+01 -1.25406518643E+02 -3.52875990064E+01  1.31884052184E+02  1.46817165330E+00  0.0000E+00  9.0
        3    1    4    4  504    0  1.30288286773E+01  7.34125530473E+00 -9.62729795185E+00  1.77867723886E+01  2.00000000000E-01  0.0000E+00  9.0
  3000022    1    4    4    0    0 -5.52284218218E+01 -5.83773222004E+01  1.81468502960E+00  1.00306447480E+02  6.00000000000E+01  0.0000E+00  9.0
</event>
<event>
10    1   3.4312288E-02   4.9900000E+02  -1.0000000E+00   9.3510000E-02
       11   -1    0    0    0    0  0.00000000000E+00  0.00000000000E+00  2.49928905530E+02  2.49928905530E+02  0.00000000000E+00  0.0000E+00  9.0
      -11   -1    0    0    0    0  0.00000000000E+00  0.00000000000E+00 -2.49036100860E+02  2.49036100860E+02  0.00000000000E+00  0.0000E+00  9.0
  3000025    2    1    2    0    0 -9.59055023806E+01 -8.35441849108E+01  1.43473609505E+02  2.49738941470E+02  1.60023017228E+02  3.8263E-13  9.0
 -3000025    2    1    2    0    0  9.59055023806E+01  8.35441849108E+01 -1.42580804835E+02  2.49226064919E+02  1.60021402656E+02  1.1225E-12  9.0
        2    1    3    3  500    0  5.72307759338E+00 -5.04657366273E+01  9.34465856428E+00  5.16417161137E+01  3.00000000000E-03  0.0000E+00  9.0
       -1    1    3    3    0  500 -6.82159559179E+01 -3.33959045475E+01  5.79748694883E+01  9.55499272607E+01  5.00000000000E-03  0.0000E+00  9.0
  3000022    1    3    3    0    0 -3.34126240562E+01  3.17456263217E-01  7.61540814528E+01  1.02547298096E+02  6.00000000000E+01  0.0000E+00  9.0
       -4    1    4    4    0  504 -1.72489843799E+01 -1.11408959225E+01  3.46858724656E+00  2.08766292678E+01  1.46817165330E+00  0.0000E+00  9.0
        3    1    4    4  504    0  1.40071506860E+00  2.64840982296E+01 -4.56400383607E+01  5.27865755974E+01  2.00000000000E-01  0.0000E+00  9.0
  3000022    1    4    4    0    0  1.11753771692E+02  6.82009826026E+01 -1.00409353721E+02  1.75562860053E+02  6.00000000000E+01  0.0000E+00  9.0
</event>
<event>
10    1   3.4312288E-02   4.7730000E+02  -1.0000000E+00   9.4010000E-02
       11   -1    0    0    0    0  0.00000000000E+00  0.00000000000E+00  2.31243918380E+02  2.31243918380E+02  0.00000000000E+00  0.0000E+00  9.0
      -11   -1    0    0    0    0  0.00000000000E+00  0.00000000000E+00 -2.46322921320E+02  2.46322921320E+02  0.00000000000E+00  0.0000E+00  9.0
  3000025    2    1    2    0    0 -1.34041106159E+02  1.00349295256E+02 -6.62562593228E+01  2.40883577756E+02  1.59993771549E+02  4.7171E-12  9.0
 -3000025    2    1    2    0    0  1.34041106159E+02 -1.00349295256E+02  5.11772563828E+01  2.36683261944E+02  1.59257199883E+02  5.2434E-13  9.0
        2    1    3    3  500    0 -3.38923067872E+01 -1.22303416114E+01 -1.95390761800E+01  4.09883547151E+01  3.00000000000E-03  0.0000E+00  9.0
       -1    1    3    3    0  500  4.91049336003E-01  6.61607387292E+01 -3.04095517719E+01  7.28163810046E+01  5.00000000000E-03  0.0000E+00  9.0
  3000022    1    3    3    0    0 -1.00639848708E+02  4.64188981374E+01 -1.63076313704E+01  1.27078842036E+02  6.00000000000E+01  0.0000E+00  9.0
       -4    1    4    4    0  504  9.48272727331E+01 -2.73380327780E+01  8.14395134114E+00  9.90356459140E+01  1.46817165330E+00  0.0000E+00  9.0
        3    1    4    4  504    0 -7.95218926912E+00  9.17817972586E+00  1.96128254740E+01  2.30690099555E+01  2.00000000000E-01  0.0000E+00  9.0
  3000022    1    4    4    0    0  4.71660226952E+01 -8.21894422048E+01  2.34204795672E+01  1.14578606074E+02  6.00000000000E+01  0.0000E+00  9.0
</event>
<event>
10    1   3.4312288E-02   4.8560000E+02  -1.0000000E+00   9.3820000E-02
       11   -1    0    0    0    0  0.00000000000E+00  0.00000000000E+00  2.49810679580E+02  2.49810679580E+02  0.00000000000E+00  0.0000E+00  9.0
      -11   -1    0    0    0    0  0.00000000000E+00  0.00000000000E+00 -2.35983295670E+02  2.35983295670E+02  0.00000000000E+00  0.0000E+00  9.0
  3000025    2    1    2    0    0 -1.33891475812E+02  1.22632679282E+02 -1.24758886686E+01  2.42430283817E+02  1.60159587257E+02  2.2952E-12  9.0
 -3000025    2    1    2    0    0  1.33891475812E+02 -1.22632679282E+02  2.63032725816E+01  2.43363691431E+02  1.59900978219E+02  1.4573E-13  9.0
        2    1    3    3  500    0 -2.66058107642E+01  6.40014301139E+01 -2.88461146263E+01  7.50743002703E+01  3.00000000000E-03  0.0000E+00  9.0
       -1    1    3    3    0  500 -2.85111321942E+01  3.46298407964E+01  4.29004710922E+01  6.20690017441E+01  5.00000000000E-03  0.0000E+00  9.0
  3000022    1    3    3    0    0 -7.87745328534E+01  2.40014083720E+01 -2.65302451335E+01  1.05286981802E+02  6.00000000000E+01  0.0000E+00  9.0
       -4    1    4    4    0  504  3.13390838608E+01 -7.02568025613E+01  3.01137968550E+01  8.26265863533E+01  1.46817165330E+00  0.0000E+00  9.0
        3    1    4    4  504    0  1.93420114645E+00  2.16783921966E+01  3.02971027167E+00  2.19752808091E+01  2.00000000000E-01  0.0000E+00  9.0
  3000022    1    4    4    0    0  1.00618190805E+02 -7.40542689178E+01 -6.84023454530E+00  1.38761824269E+02  6.00000000000E+01  0.0000E+00  9.0
</event>
<event>
10    1   3.4312288E-02   4.9340000E+02  -1.0000000E+00   9.3640000E-02
       11   -1    0    0    0    0  0.00000000000E+00  0.00000000000E+00  2.49999999940E+02  2.49999999940E+02  0.00000000000E+00  0.0000E+00  9.0
      -11   -1    0    0    0    0  0.00000000000E+00  0.00000000000E+00 -2.43462007670E+02  2.43462007670E+02  0.00000000000E+00  0.0000E+00  9.0
  3000025    2    1    2    0    0 -1.73281239379E+02  6.74881706722E+01  2.81140363733E+01  2.47172846670E+02  1.60383839548E+02  4.8183E-13  9.0
 -3000025    2    1    2    0    0  1.73281239379E+02 -6.74881706722E+01 -2.15760440983E+01  2.46289160937E+02  1.60036820809E+02  9.7192E-13  9.0
        2    1    3    3  500    0 -1.15842696221E+02  5.97057354424E+01  5.38265486741E+01  1.41002136380E+02  3.00000000000E-03  0.0000E+00  9.0
       -1    1    3    3    0  500 -3.31821670684E+01 -7.17831165201E-01 -2.38503889938E+01  4.08706810940E+01  5.00000000000E-03  0.0000E+00  9.0
  3000022    1    3    3    0    0 -2.42563760887E+01  8.50026639590E+00 -1.86212330700E+00  6.53000291958E+01  6.00000000000E+01  0.0000E+00  9.0
       -2    1    4    4    0  504  7.07476322351E+00 -1.85387206949E+01  2.01091791501E+01  2.82509386528E+01  3.00000000000E-03  0.0000E+00  9.0
        1    1    4    4  504    0  1.42446523370E+02 -2.22547088582E+01 -2.73607843183E+01  1.46747731261E+02  5.00000000000E-03  0.0000E+00  9.0
  3000022    1    4    4    0    0  2.37599527863E+01 -2.66947411198E+01 -1.43244389296E+01  7.12904910245E+01  6.00000000000E+01  0.0000E+00  9.0
</event>
<event>
10    1   3.4312288E-02   4.9370000E+02  -1.0000000E+00   9.3630000E-02
       11   -1    0    0    0    0  0.00000000000E+00  0.00000000000E+00  2.49983229120E+02  2.49983229120E+02  0.00000000000E+00  0.0000E+00  9.0
      -11   -1    0    0    0    0  0.00000000000E+00  0.00000000000E+00 -2.43711316700E+02  2.43711316700E+02  0.00000000000E+00  0.0000E+00  9.0
  3000025    2    1    2    0    0  1.80534705324E+02 -4.36572873130E+01 -2.54174827648E+01  2.46503504771E+02  1.60059960240E+02  1.5901E-12  9.0
 -3000025    2    1    2    0    0 -1.80534705324E+02  4.36572873130E+01  3.16893951838E+01  2.47191041052E+02  1.60001420142E+02  1.3175E-12  9.0
        2    1    3    3  500    0  8.05991806998E+01  1.19462035000E+01  4.09921838489E+01  9.12101905121E+01  3.00000000000E-03  0.0000E+00  9.0
       -1    1    3    3    0  500  1.82994870786E+01 -3.11751320040E+01 -1.62520180732E+01  3.96344319911E+01  5.00000000000E-03  0.0000E+00  9.0
  3000022    1    3    3    0    0  8.16360375453E+01 -2.44283588095E+01 -5.01576485405E+01  1.15658882267E+02  6.00000000000E+01  0.0000E+00  9.0
       -4    1    4    4    0  504 -7.39756288364E+01 -1.02222700327E+01 -6.24120899573E+00  7.49532966859E+01  1.46817165330E+00  0.0000E+00  9.0
        3    1    4    4  504    0  1.90796632608E+01  9.15241322284E+00  7.01476752429E-03  2.11622368183E+01  2.00000000000E-01  0.0000E+00  9.0
  3000022    1    4    4    0    0 -1.25638739749E+02  4.47271441227E+01  3.79235894126E+01  1.51075507548E+02  6.00000000000E+01  0.0000E+00  9.0
</event>
<event>
10    1   3.4312288E-02   4.6350000E+02  -1.0000000E+00   9.4340000E-02
       11   -1    0    0    0    0  0.00000000000E+00  0.00000000000E+00  2.50000000000E+02  2.50000000000E+02  0.00000000000E+00  0.0000E+00  9.0
      -11   -1    0    0    0    0  0.00000000000E+00  0.00000000000E+00 -2.14833092360E+02  2.14833092360E+02  0.00000000000E+00  0.0000E+00  9.0
  3000025    2    1    2    0    0 -1.24732204637E+02  1.02399011867E+02  6.30512163058E+01  2.35851348368E+02  1.60021005323E+02  5.0477E-13  9.0
 -3000025    2    1    2    0    0  1.24732204637E+02 -1.02399011867E+02 -2.78843086698E+01  2.28981743990E+02  1.60035695723E+02  3.1693E-13  9.0
        4    1    3    3  500    0 -5.78791155945E+01  4.58705046964E+01  2.76018385069E+01  7.88550077045E+01  1.46817165330E+00  0.0000E+00  9.0
       -3    1    3    3    0  500 -6.10504886004E+00 -2.96057335555E+01  1.58757892247E+01  3.41445715224E+01  2.00000000000E-01  0.0000E+00  9.0
  3000022    1    3    3    0    0 -6.07480401820E+01  8.61342407262E+01  1.95735885739E+01  1.22851769141E+02  6.00000000000E+01  0.0000E+00  9.0
       -2    1    4    4    0  504  8.92511670003E+01 -5.77940509332E+01 -4.50995175359E+01  1.15498439925E+02  3.00000000000E-03  0.0000E+00  9.0
        1    1    4    4  504    0  2.83665085452E+00 -4.00213184657E+01  2.02792560514E+01  4.49555421589E+01  5.00000000000E-03  0.0000E+00  9.0
  3000022    1    4    4    0    0  3.26443867817E+01 -4.58364246830E+00 -3.06404718524E+00  6.85277619055E+01  6.00000000000E+01  0.0000E+00  9.0
</event>
<event>
10    1   3.4312288E-02   5.0000000E+02  -1.0000000E+00   9.3490000E-02
       11   -1    0    0    0    0  0.00000000000E+00  0.00000000000E+00  2.50000000000E+02  2.50000000000E+02  0.00000000000E+00  0.0000E+00  9.0
      -11   -1    0    0    0    0  0.00000000000E+00  0.00000000000E+00 -2.49999975800E+02  2.49999975800E+02  0.00000000000E+00  0.0000E+00  9.0
  3000025    2    1    2    0    0  8.35593614524E+01 -1.56853645173E+02  7.29415615160E+01  2.49927405089E+02  1.59868707155E+02  1.2949E-12  9.0
 -3000025    2    1    2    0    0 -8.35593614524E+01  1.56853645173E+02 -7.29415373170E+01  2.50072570717E+02  1.60095564799E+02  2.5760E-13  9.0
        4    1    3    3  500    0  7.59459642042E+01 -1.24837215283E+02  5.44213698075E+01  1.55935758626E+02  1.46817165330E+00  0.0000E+00  9.0
       -3    1    3    3    0  500  1.75437351478E+01  1.59392637027E+00  1.70109793021E+01  2.44895214536E+01  2.00000000000E-01  0.0000E+00  9.0
  3000022    1    3    3    0    0 -9.93033789911E+00 -3.36103562611E+01  1.50921240676E+00  6.95021250098E+01  6.00000000000E+01  0.0000E+00  9.0
       -2    1    4    4    0  504 -3.21988024954E+01  6.28178112947E+00 -1.91422114597E+00  3.28616479789E+01  3.00000000000E-03  0.0000E+00  9.0
        1    1    4    4  504    0 -4.54889461548E+01  1.24886641664E+02 -7.30201105590E+01  1.51650433759E+02  5.00000000000E-03  0.0000E+00  9.0
  3000022    1    4    4    0    0 -5.87161280122E+00  2.56852223801E+01  1.99279438810E+00  6.55604889783E+01  6.00000000000E+01  0.0000E+00  9.0
</event>
<event>
10    1   3.4312288E-02   4.9410000E+02  -1.0000000E+00   9.3620000E-02
       11   -1    0    0    0    0  0.00000000000E+00  0.00000000000E+00  2.45077156580E+02  2.45077156580E+02  0.00000000000E+00  0.0000E+00  9.0
      -11   -1    0    0    0    0  0.00000000000E+00  0.00000000000E+00 -2.49052017760E+02  2.49052017760E+02  0.00000000000E+00  0.0000E+00  9.0
  3000025    2    1    2    0    0 -1.63278905070E+02 -6.61681104246E+01 -6.95149843348E+01  2.47275106847E+02  1.58979324886E+02  8.3559E-13  9.0
 -3000025    2    1    2    0    0  1.63278905070E+02  6.61681104246E+01  6.55401231578E+01  2.46854067492E+02  1.60010009736E+02  1.3798E-12  9.0
        2    1    3    3  500    0 -8.94728907347E+01 -3.40971035983E+01 -7.56684726148E-01  9.57527191833E+01  3.00000000000E-03  0.0000E+00  9.0
       -1    1    3    3    0  500 -7.71743396128E+00  2.69325944680E+01 -1.48664082997E+01  3.17164555469E+01  5.00000000000E-03  0.0000E+00  9.0
  3000022    1    3    3    0    0 -6.60885803739E+01 -5.90036012933E+01 -5.38918913091E+01  1.19805932116E+02  6.00000000000E+01  0.0000E+00  9.0
       -4    1    4    4    0  504  5.43043233172E+01  2.07147188592E+01  4.35760547249E+01  7.26573271029E+01  1.46817165330E+00  0.0000E+00  9.0
        3    1    4    4  504    0 -1.56966277213E+01  2.45672599929E+01 -9.71431997233E+00  3.07301545376E+01  2.00000000000E-01  0.0000E+00  9.0
  3000022    1    4    4    0    0  1.24671209474E+02  2.08861315721E+01  3.16783884061E+01  1.43466585851E+02  6.00000000000E+01  0.0000E+00  9.0
</event>
<event>
10    1   3.4312288E-02   4.7620000E+02  -1.0000000E+00   9.4030000E-02
       11   -1    0    0    0    0  0.00000000000E+00  0.00000000000E+00  2.28979201070E+02  2.28979201070E+02  0.00000000000E+00  0.0000E+00  9.0
      -11   -1    0    0    0    0  0.00000000000E+00  0.00000000000E+00 -2.47560125460E+02  2.47560125460E+02  0.00000000000E+00  0.0000E+00  9.0
  3000025    2    1    2    0    0 -6.15867178363E+01 -1.24178383393E+02  1.00747523833E+02  2.33620445750E+02  1.58793118232E+02  2.7633E-13  9.0
 -3000025    2    1    2    0    0  6.15867178363E+01  1.24178383393E+02 -1.19328448223E+02  2.42918880777E+02  1.59865910583E+02  1.6230E-13  9.0
        4    1    3    3  500    0 -2.99131363638E+01 -5.07324998292E+00  3.91838704087E+00  3.06274856545E+01  1.46817165330E+00  0.0000E+00  9.0
       -3    1    3    3    0  500  1.56167926571E+01 -9.70889270979E+01  4.54614661800E+01  1.08337107609E+02  2.00000000000E-01  0.0000E+00  9.0
  3000022    1    3    3    0    0 -4.72903741296E+01 -2.20162063127E+01  5.13676706121E+01  9.46558524859E+01  6.00000000000E+01  0.0000E+00  9.0
      -14    1    4    4    0    0  5.79306002715E+01  1.88304091696E+01 -5.98589146880E+01  8.54027424908E+01  0.00000000000E+00  0.0000E+00  9.0
       13    1    4    4    0    0 -2.41650165211E+01  5.83926666514E+00 -2.02773168333E+00  2.49432942275E+01  1.05700000000E-01  0.0000E+00  9.0
  3000022    1    4    4    0    0  2.78211340854E+01  9.95087075585E+01 -5.74418018505E+01  1.32572844058E+02  6.00000000000E+01  0.0000E+00  9.0
</event>
<event>
10    1   3.4312288E-02   4.9400000E+02  -1.0000000E+00   9.3620000E-02
       11   -1    0    0    0    0  0.00000000000E+00  0.00000000000E+00  2.44035022730E+02  2.44035022730E+02  0.00000000000E+00  0.0000E+00  9.0
      -11   -1    0    0    0    0  0.00000000000E+00  0.00000000000E+00 -2.49999935890E+02  2.49999935890E+02  0.00000000000E+00  0.0000E+00  9.0
  3000025    2    1    2    0    0  1.71498055614E+02  4.16769882238E+01  6.23088768511E+01  2.46272879311E+02  1.60060552677E+02  2.5655E-13  9.0
 -3000025    2    1    2    0    0 -1.71498055614E+02 -4.16769882238E+01 -6.82737900091E+01  2.47762079312E+02  1.59925554920E+02  1.0787E-12  9.0
        4    1    3    3  500    0  6.81191061152E+01  2.67843435457E+01  2.52372882996E+01  7.74382975396E+01  1.46817165330E+00  0.0000E+00  9.0
       -3    1    3    3    0  500 -1.23657821602E+00 -2.72540138441E+01  3.04871757238E+01  4.09123243035E+01  2.00000000000E-01  0.0000E+00  9.0
  3000022    1    3    3    0    0  1.04615527713E+02  4.21466585221E+01  6.58441282736E+00  1.27922257467E+02  6.00000000000E+01  0.0000E+00  9.0
       -2    1    4    4    0  504 -2.14373159243E+01 -4.88106569514E+01  3.84580858806E-01  5.33121623788E+01  3.00000000000E-03  0.0000E+00  9.0
        1    1    4    4  504    0 -5.76834684189E+01 -1.05215709107E+00 -6.06446362889E+01  8.37034139028E+01  5.00000000000E-03  0.0000E+00  9.0
  3000022    1    4    4    0    0 -9.23772712708E+01  8.18582581763E+00 -8.01373457906E+00  1.10746503031E+02  6.00000000000E+01  0.0000E+00  9.0
</event>
<event>
10    1   3.4312288E-02   4.7450000E+02  -1.0000000E+00   9.4070000E-02
       11   -1    0    0    0    0  0.00000000000E+00  0.00000000000E+00  2.28535540000E+02  2.28535540000E+02  0.00000000000E+00  0.0000E+00  9.0
      -11   -1    0    0    0    0  0.00000000000E+00  0.00000000000E+00 -2.46308485290E+02  2.46308485290E+02  0.00000000000E+00  0.0000E+00  9.0
  3000025    2    1    2    0    0 -1.27637895827E+02  1.05513733959E+02 -6.59949095817E+01  2.39564882758E+02  1.60035697440E+02  4.0778E-13  9.0
 -3000025    2    1    2    0    0  1.27637895827E+02 -1.05513733959E+02  4.82219642927E+01  2.35279142535E+02  1.60019800546E+02  9.7343E-14  9.0
        2    1    3    3  500    0 -3.44025868838E+01 -1.63905188031E+01 -2.06274790725E+01  4.33322050307E+01  3.00000000000E-03  0.0000E+00  9.0
       -1    1    3    3    0  500 -7.89140331220E+01  7.29595637881E+01 -4.62578697493E+00  1.07572861363E+02  5.00000000000E-03  0.0000E+00  9.0
  3000022    1    3    3    0    0 -1.43212758211E+01  4.89446889736E+01 -4.07416435344E+01  8.86598163643E+01  6.00000000000E+01  0.0000E+00  9.0
       -4    1    4    4    0  504  7.20971968016E+00  1.95029166594E+01  1.91397821692E+00  2.09323351948E+01  1.46817165330E+00  0.0000E+00  9.0
        3    1    4    4  504    0  3.25253748020E+01 -7.05809645809E+00 -2.35703899022E+01  4.07838204655E+01  2.00000000000E-01  0.0000E+00  9.0
  3000022    1    4    4    0    0  8.79028013440E+01 -1.17958554159E+02  6.98783759777E+01  1.73562986874E+02  6.00000000000E+01  0.0000E+00  9.0
</event>
<event>
10    1   3.4312288E-02   4.7420000E+02  -1.0000000E+00   9.4080000E-02
       11   -1    0    0    0    0  0.00000000000E+00  0.00000000000E+00  2.49686570020E+02  2.49686570020E+02  0.00000000000E+00  0.0000E+00  9.0
      -11   -1    0    0    0    0  0.00000000000E+00  0.00000000000E+00 -2.25136236410E+02  2.25136236410E+02  0.00000000000E+00  0.0000E+00  9.0
  3000025    2    1    2    0    0  5.44633050984E+01 -1.32284155517E+02  1.12979049040E+02  2.42576181809E+02  1.60042460166E+02  6.0480E-13  9.0
 -3000025    2    1    2    0    0 -5.44633050984E+01  1.32284155517E+02 -8.84287154203E+01  2.32246624621E+02  1.60167123761E+02  1.2453E-12  9.0
        4    1    3    3  500    0 -4.85134956653E+00  2.18782679533E+01  1.55769525361E+01  2.73311393756E+01  1.46817165330E+00  0.0000E+00  9.0
       -3    1    3    3    0  500  4.40785511671E+01 -5.96132872031E+01  6.24930996812E+01  9.69643758909E+01  2.00000000000E-01  0.0000E+00  9.0
  3000022    1    3    3    0    0  1.52361034978E+01 -9.45491362669E+01  3.49089968232E+01  1.18280666543E+02  6.00000000000E+01  0.0000E+00  9.0
       -4    1    4    4    0  504 -2.42062756991E+01  2.82439673728E+01 -5.49948713028E+01  6.64097648979E+01  1.46817165330E+00  0.0000E+00  9.0
        3    1    4    4  504    0  1.96028935570E+01  2.17029459830E+00  1.88505596975E+01  2.72830939477E+01  2.00000000000E-01  0.0000E+00  9.0
  3000022    1    4    4    0    0 -4.98599229563E+01  1.01869893545E+02 -5.22844038157E+01  1.38553765775E+02  6.00000000000E+01  0.0000E+00  9.0
</event>
<event>
10    1   3.4312288E-02   4.9930000E+02  -1.0000000E+00   9.3510000E-02
       11   -1    0    0    0    0  0.00000000000E+00  0.00000000000E+00  2.49328615380E+02  2.49328615380E+02  0.00000000000E+00  0.0000E+00  9.0
      -11   -1    0    0    0    0  0.00000000000E+00  0.00000000000E+00 -2.49997117730E+02  2.49997117730E+02  0.00000000000E+00  0.0000E+00  9.0
  3000025    2    1    2    0    0  6.74648062540E+01 -1.39615750436E+02 -1.12977911391E+02  2.49819059771E+02  1.60004675899E+02  3.2104E-14  9.0
 -3000025    2    1    2    0    0 -6.74648062540E+01  1.39615750436E+02  1.12309409041E+02  2.49506673342E+02  1.59987870885E+02  3.0768E-13  9.0
        4    1    3    3  500    0  3.96587249689E+01 -7.94798706000E+00 -1.42865794071E+01  4.29214030948E+01  1.46817165330E+00  0.0000E+00  9.0
       -3    1    3    3    0  500 -1.94273478308E+01 -2.20324854292E+01 -6.15872498014E+01  6.82340208109E+01  2.00000000000E-01  0.0000E+00  9.0
  3000022    1    3    3    0    0  4.72334291160E+01 -1.09635277948E+02 -3.71040821829E+01  1.38663635866E+02  6.00000000000E+01  0.0000E+00  9.0
       -2    1    4    4    0  504 -1.70288159803E+01  8.34084423276E+01  5.02593456857E+01  9.88582351803E+01  3.00000000000E-03  0.0000E+00  9.0
        1    1    4    4  504    0 -9.78213471862E+00  1.02604672589E+01 -2.47932025436E+01  2.85599416210E+01  5.00000000000E-03  0.0000E+00  9.0
  3000022    1    4    4    0    0 -4.06538555548E+01  4.59468408483E+01  8.68432658990E+01  1.22088496540E+02  6.00000000000E+01  0.0000E+00  9.0
</event>
<event>
10    1   3.4312288E-02   5.0000000E+02  -1.0000000E+00   9.3490000E-02
       11   -1    0    0    0    0  0.00000000000E+00  0.00000000000E+00  2.49992971620E+02  2.49992971620E+02  0.00000000000E+00  0.0000E+00  9.0
      -11   -1    0    0    0    0  0.00000000000E+00  0.00000000000E+00 -2.49984653340E+02  2.49984653340E+02  0.00000000000E+00  0.0000E+00  9.0
  3000025    2    1    2    0    0  4.94160185059E+01  1.76243123895E+02 -5.83385498069E+01  2.50117664801E+02  1.60162037470E+02  8.9139E-14  9.0
 -3000025    2    1    2    0    0 -4.94160185059E+01 -1.76243123895E+02  5.83468680949E+01  2.49859960164E+02  1.59756255188E+02  4.5888E-13  9.0
        4    1    3    3  500    0  5.38091596187E+01  6.96541192618E+01 -4.14308185995E+01  9.72922928440E+01  1.46817165330E+00  0.0000E+00  9.0
       -3    1    3    3    0  500  2.62299878611E+00  5.69281170406E+01  2.70865343817E+01  6.30984229378E+01  2.00000000000E-01  0.0000E+00  9.0
  3000022    1    3    3    0    0 -7.01613989893E+00  4.96608875931E+01 -4.39942655891E+01  8.97269490195E+01  6.00000000000E+01  0.0000E+00  9.0
      -14    1    4    4    0    0 -6.61008543670E+01 -6.86677061412E+01  1.41658060131E+01  9.63599858590E+01  0.00000000000E+00  0.0000E+00  9.0
       13    1    4    4    0    0  8.55447001616E+00 -4.30863092023E+01  4.78621899928E+01  6.49646781053E+01  1.05700000000E-01  0.0000E+00  9.0
  3000022    1    4    4    0    0  8.13036584504E+00 -6.44891085513E+01 -3.68112791129E+00  8.85352962000E+01  6.00000000000E+01  0.0000E+00  9.0
</event>
<event>
10    1   3.4312288E-02   4.8970000E+02  -1.0000000E+00   9.3720000E-02
       11   -1    0    0    0    0  0.00000000000E+00  0.00000000000E+00  2.49661718350E+02  2.49661718350E+02  0.00000000000E+00  0.0000E+00  9.0
      -11   -1    0    0    0    0  0.00000000000E+00  0.00000000000E+00 -2.40137096590E+02  2.40137096590E+02  0.00000000000E+00  0.0000E+00  9.0
  3000025    2    1    2    0    0  1.83140859059E+02 -1.59960174329E+01  2.76918871872E+01  2.45417208547E+02  1.60207112216E+02  1.6302E-13  9.0
 -3000025    2    1    2    0    0 -1.83140859059E+02  1.59960174329E+01 -1.81672654322E+01  2.44381606401E+02  1.59987103179E+02  1.3200E-12  9.0
        4    1    3    3  500    0  5.45586361188E+01 -3.49365597854E+01  1.48369150323E+01  6.64793017447E+01  1.46817165330E+00  0.0000E+00  9.0
       -3    1    3    3    0  500  6.90524194593E+01  4.51832993365E+01  3.17910387113E+01  8.84334626398E+01  2.00000000000E-01  0.0000E+00  9.0
  3000022    1    3    3    0    0  5.95298034810E+01 -2.62427569841E+01 -1.89360665565E+01  9.05044441629E+01  6.00000000000E+01  0.0000E+00  9.0
       -2    1    4    4    0  504 -2.64866433156E+01 -2.53062502204E+01  1.24562873009E+01  3.86924757113E+01  3.00000000000E-03  0.0000E+00  9.0
        1    1    4    4  504    0 -3.43176132808E+01  2.86704602160E+01 -5.04524580572E+01  6.74176862500E+01  5.00000000000E-03  0.0000E+00  9.0
  3000022    1    4    4    0    0 -1.22336602463E+02  1.26318074369E+01  1.98289053242E+01  1.38271444440E+02  6.00000000000E+01  0.0000E+00  9.0
</event>
<event>
10    1   3.4312288E-02   4.8510000E+02  -1.0000000E+00   9.3830000E-02
       11   -1    0    0    0    0  0.00000000000E+00  0.00000000000E+00  2.49443322310E+02  2.49443322310E+02  0.00000000000E+00  0.0000E+00  9.0
      -11   -1    0    0    0    0  0.00000000000E+00  0.00000000000E+00 -2.35833982000E+02  2.35833982000E+02  0.00000000000E+00  0.0000E+00  9.0
  3000025    2    1    2    0    0 -1.65150682100E+02  6.83228551173E+01  4.24640133140E+01  2.43489086722E+02  1.59815464197E+02  1.3320E-12  9.0
 -3000025    2    1    2    0    0  1.65150682100E+02 -6.83228551173E+01 -2.88546730000E+01  2.41788217580E+02  1.60269116417E+02  2.5939E-12  9.0
        4    1    3    3  500    0 -1.12007313683E+02  5.83640012609E+01  3.93555739743E+01  1.32298948192E+02  1.46817165330E+00  0.0000E+00  9.0
       -3    1    3    3    0  500 -2.84506138566E+00 -2.25879720702E+01  1.23457625205E+01  2.58992028593E+01  2.00000000000E-01  0.0000E+00  9.0
  3000022    1    3    3    0    0 -5.02983070308E+01  3.25468259269E+01 -9.23732318070E+00  8.52909356709E+01  6.00000000000E+01  0.0000E+00  9.0
      -14    1    4    4    0    0  9.22377093376E+01 -3.21012903533E+01  7.47318279581E+00  9.79496622112E+01  0.00000000000E+00  0.0000E+00  9.0
       13    1    4    4    0    0  1.72625128101E+01  2.35787001180E+01 -3.06129315184E+01  4.23215334837E+01  1.05700000000E-01  0.0000E+00  9.0
  3000022    1    4    4    0    0  5.56504599521E+01 -5.98002648819E+01 -5.71492427794E+00  1.01517021885E+02  6.00000000000E+01  0.0000E+00  9.0
</event>
<event>
10    1   3.4312288E-02   4.8060000E+02  -1.0000000E+00   9.3930000E-02
       11   -1    0    0    0    0  0.00000000000E+00  0.00000000000E+00  2.49856746990E+02  2.49856746990E+02  0.00000000000E+00  0.0000E+00  9.0
      -11   -1    0    0    0    0  0.00000000000E+00  0.00000000000E+00 -2.31152257860E+02  2.31152257860E+02  0.00000000000E+00  0.0000E+00  9.0
  3000025    2    1    2    0    0 -5.10573303674E+01  1.53005799636E+02 -6.89327960474E+01  2.37405040862E+02  1.59974364664E+02  8.0208E-13  9.0
 -3000025    2    1    2    0    0  5.10573303674E+01 -1.53005799636E+02  8.76372851704E+01  2.43603963991E+02  1.60140475251E+02  4.3254E-13  9.0
        4    1    3    3  500    0 -5.91376633185E+01  6.78353393390E+01 -5.16583121297E+01  1.03776843400E+02  1.46817165330E+00  0.0000E+00  9.0
       -3    1    3    3    0  500  2.68097836086E+01  2.20240072803E+01 -2.70521162703E+01  4.39963451723E+01  2.00000000000E-01  0.0000E+00  9.0
  3000022    1    3    3    0    0 -1.87294506578E+01  6.31464530170E+01  9.77763235250E+00  8.96318522903E+01  6.00000000000E+01  0.0000E+00  9.0
       -4    1    4    4    0  504 -3.87545657041E+01 -4.24226081109E+01 -3.21648339579E+00  5.75681798851E+01  1.46817165330E+00  0.0000E+00  9.0
        3    1    4    4  504    0  3.13201013810E+01 -1.69250924219E+01  2.92600917137E+01  4.60825397640E+01  2.00000000000E-01  0.0000E+00  9.0
  3000022    1    4    4    0    0  5.84917946904E+01 -9.36580991023E+01  6.15936768524E+01  1.39953244342E+02  6.00000000000E+01  0.0000E+00  9.0
</event>
<event>
10    1   3.4312288E-02   4.9280000E+02  -1.0000000E+00   9.3650000E-02
       11   -1    0    0    0    0  0.00000000000E+00  0.00000000000E+00  2.49881595050E+02  2.49881595050E+02  0.00000000000E+00  0.0000E+00  9.0
      -11   -1    0    0    0    0  0.00000000000E+00  0.00000000000E+00 -2.42951901010E+02  2.42951901010E+02  0.00000000000E+00  0.0000E+00  9.0
  3000025    2    1    2    0    0 -3.02850870562E+01  1.63473765568E+02  8.97841675283E+01  2.47640463815E+02  1.60074182968E+02  5.3275E-14  9.0
 -3000025    2    1    2    0    0  3.02850870562E+01 -1.63473765568E+02 -8.28544734873E+01  2.45193032244E+02  1.60043433972E+02  1.0334E-12  9.0
        4    1    3    3  500    0 -1.51654474285E+00  1.17245456840E+02  7.08110220417E+01  1.36985960697E+02  1.46817165330E+00  0.0000E+00  9.0
       -3    1    3    3    0  500  1.34896001717E+01 -7.47174781247E+00  1.18322402789E+01  1.94380615851E+01  2.00000000000E-01  0.0000E+00  9.0
  3000022    1    3    3    0    0 -4.22581424851E+01  5.37000565388E+01  7.14090520747E+00  9.12164415319E+01  6.00000000000E+01  0.0000E+00  9.0
       -2    1    4    4    0  504 -2.01896889851E+01 -5.38750694472E+01  1.88659002116E+01  6.05480705642E+01  3.00000000000E-03  0.0000E+00  9.0
        1    1    4    4  504    0  4.20055099249E+01 -2.15551546869E+01 -3.19341076897E+01  5.69989018891E+01  5.00000000000E-03  0.0000E+00  9.0
  3000022    1    4    4    0    0  8.46926611608E+00 -8.80435414331E+01 -6.97862660091E+01  1.27646059791E+02  6.00000000000E+01  0.0000E+00  9.0
</event>
<event>
10    1   3.4312288E-02   4.9960000E+02  -1.0000000E+00   9.3500000E-02
       11   -1    0    0    0    0  0.00000000000E+00  0.00000000000E+00  2.49552287420E+02  2.49552287420E+02  0.00000000000E+00  0.0000E+00  9.0
      -11   -1    0    0    0    0  0.00000000000E+00  0.00000000000E+00 -2.49999999690E+02  2.49999999690E+02  0.00000000000E+00  0.0000E+00  9.0
  3000025    2    1    2    0    0  1.74605940680E+02 -7.92702636185E+01 -5.01445171232E+00  2.49803424102E+02  1.60017488895E+02  6.5939E-12  9.0
 -3000025    2    1    2    0    0 -1.74605940680E+02  7.92702636185E+01  4.56673944782E+00  2.49748863008E+02  1.59945710319E+02  4.0437E-13  9.0
        4    1    3    3  500    0  4.08127766719E+01 -4.28076728688E+01  1.79957962691E+01  6.18399855067E+01  1.46817165330E+00  0.0000E+00  9.0
       -3    1    3    3    0  500  9.64515535208E+01  1.35054779296E+01 -2.77896653244E+01  1.01279838120E+02  2.00000000000E-01  0.0000E+00  9.0
  3000022    1    3    3    0    0  3.73416104883E+01 -4.99680686794E+01  4.77941734285E+00  8.66836004764E+01  6.00000000000E+01  0.0000E+00  9.0
       -4    1    4    4    0  504 -1.03904918700E+01  2.41667611395E+01 -2.72301939776E+01  3.78897566280E+01  1.46817165330E+00  0.0000E+00  9.0
        3    1    4    4  504    0 -7.46273611728E+01  5.03449757475E+01  4.91167009021E+01  1.02549256097E+02  2.00000000000E-01  0.0000E+00  9.0
  3000022    1    4    4    0    0 -8.95880876375E+01  4.75852673097E+00 -1.73197674768E+01  1.09309850282E+02  6.00000000000E+01  0.0000E+00  9.0
</event>
<event>
10    1   3.4312288E-02   4.8680000E+02  -1.0000000E+00   9.3790000E-02
       11   -1    0    0    0    0  0.00000000000E+00  0.00000000000E+00  2.42936655200E+02  2.42936655200E+02  0.00000000000E+00  0.0000E+00  9.0
      -11   -1    0    0    0    0  0.00000000000E+00  0.00000000000E+00 -2.43870806200E+02  2.43870806200E+02  0.00000000000E+00  0.0000E+00  9.0
  3000025    2    1    2    0    0  3.12451045805E+01 -1.59758797529E+02 -8.51924554889E+01  2.43487055524E+02  1.59778164300E+02  3.3788E-12  9.0
 -3000025    2    1    2    0    0 -3.12451045805E+01  1.59758797529E+02  8.42583044919E+01  2.43320405876E+02  1.60019461602E+02  1.6572E-13  9.0
        4    1    3    3  500    0 -1.20881394172E+01 -2.46610095796E+01  1.74354834014E+01  3.25643995415E+01  1.46817165330E+00  0.0000E+00  9.0
       -3    1    3    3    0  500  2.49017155311E+01 -1.16009589267E+02 -6.73044358775E+01  1.36412049787E+02  2.00000000000E-01  0.0000E+00  9.0
  3000022    1    3    3    0    0  1.84315284666E+01 -1.90881986842E+01 -3.53235030127E+01  7.45106061961E+01  6.00000000000E+01  0.0000E+00  9.0
       -2    1    4    4    0  504  1.54501986190E+01  1.13052072779E+02  2.79932216533E+01  1.17486596106E+02  3.00000000000E-03  0.0000E+00  9.0
        1    1    4    4  504    0  1.28361124994E+00 -6.91251947121E+00  2.66754867548E+01  2.75864496064E+01  5.00000000000E-03  0.0000E+00  9.0
  3000022    1    4    4    0    0 -4.79789144500E+01  5.36192442213E+01  2.95895960833E+01  9.82473601632E+01  6.00000000000E+01  0.0000E+00  9.0
</event>
<event>
10    1   3.4312288E-02   4.9970000E+02  -1.0000000E+00   9.3500000E-02
       11   -1    0    0    0    0  0.00000000000E+00  0.00000000000E+00  2.49724242730E+02  2.49724242730E+02  0.00000000000E+00  0.0000E+00  9.0
      -11   -1    0    0    0    0  0.00000000000E+00  0.00000000000E+00 -2.49996796200E+02  2.49996796200E+02  0.00000000000E+00  0.0000E+00  9.0
  3000025    2    1    2    0    0  1.74338925764E+02 -7.04170541880E+01 -3.91892648846E+01  2.49776556515E+02  1.59686903486E+02  3.6587E-13  9.0
 -3000025    2    1    2    0    0 -1.74338925764E+02  7.04170541880E+01  3.89167114156E+01  2.49944482412E+02  1.60015972027E+02  2.5952E-12  9.0
        2    1    3    3  500    0  6.95318215227E+01  8.33812026789E+00 -2.55678571234E+01  7.45514170271E+01  3.00000000000E-03  0.0000E+00  9.0
       -1    1    3    3    0  500  2.61227862145E+01 -5.35773870196E+01 -3.74276256505E+01  7.03829776742E+01  5.00000000000E-03  0.0000E+00  9.0
  3000022    1    3    3    0    0  7.86843180254E+01 -2.51777874366E+01  2.38062178894E+01  1.04842161813E+02  6.00000000000E+01  0.0000E+00  9.0
       -2    1    4    4    0  504 -2.98092573356E+01  3.67216759908E+00  4.42345597754E+01  5.34674940996E+01  3.00000000000E-03  0.0000E+00  9.0
        1    1    4    4  504    0 -1.15385040232E+02  5.70347858389E+01  1.55137992103E+00  1.28720942779E+02  5.00000000000E-03  0.0000E+00  9.0
  3000022    1    4    4    0    0 -2.91446281960E+01  9.71010075011E+00 -6.86922828079E+00  6.77560455342E+01  6.00000000000E+01  0.0000E+00  9.0
</event>
<event>
10    1   3.4312288E-02   4.9470000E+02  -1.0000000E+00   9.3610000E-02
       11   -1    0    0    0    0  0.00000000000E+00  0.00000000000E+00  2.49999654880E+02  2.49999654880E+02  0.00000000000E+00  0.0000E+00  9.0
      -11   -1    0    0    0    0  0.00000000000E+00  0.00000000000E+00 -2.44753671520E+02  2.44753671520E+02  0.00000000000E+00  0.0000E+00  9.0
  3000025    2    1    2    0    0 -1.61854791894E+02  9.68189272696E+01  4.72253727376E-01  2.47374197174E+02  1.60071521723E+02  8.6692E-13  9.0
 -3000025    2    1    2    0    0  1.61854791894E+02 -9.68189272696E+01  4.77372962823E+00  2.47379129223E+02  1.60008645841E+02  1.0579E-13  9.0
       14    1    3    3    0    0 -1.09757799376E+02  2.40959912404E+01  3.83041878617E-01  1.12372318828E+02  0.00000000000E+00  0.0000E+00  9.0
      -13    1    3    3    0    0  7.60766733905E+00 -3.83492340577E+00 -1.75571399498E+01  1.95153164354E+01  1.05700000000E-01  0.0000E+00  9.0
  3000022    1    3    3    0    0 -5.97046598576E+01  7.65578594350E+01  1.76463517994E+01  1.15486561910E+02  6.00000000000E+01  0.0000E+00  9.0
       -2    1    4    4    0  500 -9.99977422943E+00 -3.64014200265E+01 -1.26447496158E+01  3.98114125149E+01  3.00000000000E-03  0.0000E+00  9.0
        1    1    4    4  500    0  9.53166187196E+01 -3.35990292360E+01 -1.37124467459E+01  1.01991096624E+02  5.00000000000E-03  0.0000E+00  9.0
  3000022    1    4    4    0    0  7.65379474041E+01 -2.68184780071E+01  3.11309259899E+01  1.05576620084E+02  6.00000000000E+01  0.0000E+00  9.0
</event>
<event>
10    1   3.4312288E-02   5.0000000E+02  -1.0000000E+00   9.3490000E-02
       11   -1    0    0    0    0  0.00000000000E+00  0.00000000000E+00  2.49983427700E+02  2.49983427700E+02  0.00000000000E+00  0.0000E+00  9.0
      -11   -1    0    0    0    0  0.00000000000E+00  0.00000000000E+00 -2.49981137420E+02  2.49981137420E+02  0.00000000000E+00  0.0000E+00  9.0
  3000025    2    1    2    0    0 -2.14082284881E+01 -1.90863818780E+02 -2.55420714608E+00  2.50033765102E+02  1.60072015513E+02  3.9361E-13  9.0
 -3000025    2    1    2    0    0  2.14082284881E+01  1.90863818780E+02  2.55649742408E+00  2.49930800028E+02  1.59911098917E+02  4.7115E-13  9.0
        4    1    3    3  500    0  2.63297998204E+01 -8.51766845512E+01 -4.18113682589E+01  9.84818358551E+01  1.46817165330E+00  0.0000E+00  9.0
       -3    1    3    3    0  500 -3.59573984191E+01 -5.89905961804E+01  1.33047516856E+01  7.03553932276E+01  2.00000000000E-01  0.0000E+00  9.0
  3000022    1    3    3    0    0 -1.17806298892E+01 -4.66965380482E+01  2.59524094282E+01  8.11965360185E+01  6.00000000000E+01  0.0000E+00  9.0
      -14    1    4    4    0    0  4.37790785058E+01  8.32433062909E+01 -3.79737526194E+01  1.01430082545E+02  0.00000000000E+00  0.0000E+00  9.0
       13    1    4    4    0    0 -1.74610566014E+01  6.92054459363E+01  1.78480675776E+01  7.35720526669E+01  1.05700000000E-01  0.0000E+00  9.0
  3000022    1    4    4    0    0 -4.90979341624E+00  3.84150665533E+01  2.26821824658E+01  7.49286648159E+01  6.00000000000E+01  0.0000E+00  9.0
</event>
<event>
10    1   3.4312288E-02   4.9930000E+02  -1.0000000E+00   9.3510000E-02
       11   -1    0    0    0    0  0.00000000000E+00  0.00000000000E+00  2.49601240070E+02  2.49601240070E+02  0.00000000000E+00  0.0000E+00  9.0
      -11   -1    0    0    0    0  0.00000000000E+00  0.00000000000E+00 -2.49738350950E+02  2.49738350950E+02  0.00000000000E+00  0.0000E+00  9.0
  3000025    2    1    2    0    0 -1.88381533448E+02 -2.40156346211E+00  3.56514242310E+01  2.49717398174E+02  1.59982452944E+02  9.0203E-13  9.0
 -3000025    2    1    2    0    0  1.88381533448E+02  2.40156346211E+00 -3.57885351180E+01  2.49622192844E+02  1.59803160993E+02  3.4717E-12  9.0
        2    1    3    3  500    0 -2.23715270116E+01 -3.72000731021E+01  2.51795629526E+01  5.01830754251E+01  3.00000000000E-03  0.0000E+00  9.0
       -1    1    3    3    0  500 -6.22146144185E+01  8.78380861212E+00 -3.09629200399E+01  7.00465272756E+01  5.00000000000E-03  0.0000E+00  9.0
  3000022    1    3    3    0    0 -1.03795392017E+02  2.60147010288E+01  4.14347813183E+01  1.29487795473E+02  6.00000000000E+01  0.0000E+00  9.0
       -4    1    4    4    0  504  6.90767025761E+01  4.18613865752E+01 -1.57699360004E+01  8.23092518144E+01  1.46817165330E+00  0.0000E+00  9.0
        3    1    4    4  504    0  3.70629504570E+01 -3.14607548798E+01 -4.03659493335E+01  6.31893286859E+01  2.00000000000E-01  0.0000E+00  9.0
  3000022    1    4    4    0    0  8.22418804147E+01 -7.99906823270E+00  2.03473502164E+01  1.04123612344E+02  6.00000000000E+01  0.0000E+00  9.0
</event>
<event>
10    1   3.4312288E-02   4.9900000E+02  -1.0000000E+00   9.3510000E-02
       11   -1    0    0    0    0  0.00000000000E+00  0.00000000000E+00  2.49629242240E+02  2.49629242240E+02  0.00000000000E+00  0.0000E+00  9.0
      -11   -1    0    0    0    0  0.00000000000E+00  0.00000000000E+00 -2.49378459610E+02  2.49378459610E+02  0.00000000000E+00  0.0000E+00  9.0
  3000025    2    1    2    0    0  9.05320507205E+00  1.80691851265E+02  6.31399754301E+01  2.49432284950E+02  1.59681879506E+02  2.1135E-12  9.0
 -3000025    2    1    2    0    0 -9.05320507205E+00 -1.80691851265E+02 -6.28891928021E+01  2.49575416903E+02  1.60004164056E+02  5.6755E-13  9.0
        2    1    3    3  500    0 -3.22591161680E+00 -1.47019335850E+01  1.30072571156E+01  1.98932677951E+01  3.00000000000E-03  0.0000E+00  9.0
       -1    1    3    3    0  500  3.09817911300E+01  9.55466207243E+01 -2.21182427800E+00  1.00468504045E+02  5.00000000000E-03  0.0000E+00  9.0
  3000022    1    3    3    0    0 -1.87026744409E+01  9.98471641270E+01  5.23445425933E+01  1.29070513111E+02  6.00000000000E+01  0.0000E+00  9.0
       -4    1    4    4    0  504 -3.21988506001E+00  1.15274344035E+01 -5.57598275340E+00  1.32851991101E+01  1.46817165330E+00  0.0000E+00  9.0
        3    1    4    4  504    0  2.62553385444E+01 -1.25670638755E+02 -6.85669884167E+00  1.28567128638E+02  2.00000000000E-01  0.0000E+00  9.0
  3000022    1    4    4    0    0 -3.20886585563E+01 -6.65486469132E+01 -5.04565112061E+01  1.07723089155E+02  6.00000000000E+01  0.0000E+00  9.0
</event>
<event>
10    1   3.4312288E-02   4.9730000E+02  -1.0000000E+00   9.3550000E-02
       11   -1    0    0    0    0  0.00000000000E+00  0.00000000000E+00  2.49999999910E+02  2.49999999910E+02  0.00000000000E+00  0.0000E+00  9.0
      -11   -1    0    0    0    0  0.00000000000E+00  0.00000000000E+00 -2.47311292880E+02  2.47311292880E+02  0.00000000000E+00  0.0000E+00  9.0
  3000025    2    1    2    0    0 -3.49822824352E+01  1.43377760531E+02 -1.18952862174E+02  2.48088911144E+02  1.60054309889E+02  1.2924E-12  9.0
 -3000025    2    1    2    0    0  3.49822824352E+01 -1.43377760531E+02  1.21641569204E+02  2.49222381648E+02  1.59794185929E+02  3.9923E-13  9.0
        2    1    3    3  500    0 -1.78903813753E+00  2.78792577138E+01 -4.95750948046E+01  5.69046896311E+01  3.00000000000E-03  0.0000E+00  9.0
       -1    1    3    3    0  500 -3.92598024052E+01 -1.15935508402E+00 -4.11020172722E+01  5.68511392845E+01  5.00000000000E-03  0.0000E+00  9.0
  3000022    1    3    3    0    0  6.06655810783E+00  1.16657857901E+02 -2.82757500962E+01  1.34333082228E+02  6.00000000000E+01  0.0000E+00  9.0
       -2    1    4    4    0  504 -3.14882862603E+01 -3.03142178750E+01 -1.17910143241E+01  4.52713154743E+01  3.00000000000E-03  0.0000E+00  9.0
        1    1    4    4  504    0  2.40588829192E+01 -1.53973184156E+01  4.41898486112E+01  5.26179627788E+01  5.00000000000E-03  0.0000E+00  9.0
  3000022    1    4    4    0    0  4.24116857763E+01 -9.76662242408E+01  8.92427349167E+01  1.51333103395E+02  6.00000000000E+01  0.0000E+00  9.0
</event>
<event>
10    1   3.4312288E-02   4.4190000E+02  -1.0000000E+00   9.4880000E-02
       11   -1    0    0    0    0  0.00000000000E+00  0.00000000000E+00  2.48658909360E+02  2.48658909360E+02  0.00000000000E+00  0.0000E+00  9.0
      -11   -1    0    0    0    0  0.00000000000E+00  0.00000000000E+00 -1.96338993940E+02  1.96338993940E+02  0.00000000000E+00  0.0000E+00  9.0
  3000025    2    1    2    0    0 -5.18304551122E+01 -1.40929039402E+02 -5.40423679864E-01  2.19376623526E+02  1.59932550370E+02  1.5681E-13  9.0
 -3000025    2    1    2    0    0  5.18304551122E+01  1.40929039402E+02  5.28603391024E+01  2.25621279781E+02  1.59885447168E+02  4.7826E-13  9.0
        2    1    3    3  500    0 -6.26657539750E+00 -9.18343265883E+01 -4.51630798769E+01  1.02530567638E+02  3.00000000000E-03  0.0000E+00  9.0
       -1    1    3    3    0  500  9.48405246148E-01 -2.95859193885E+01  1.17212612646E+01  3.18373065633E+01  5.00000000000E-03  0.0000E+00  9.0
  3000022    1    3    3    0    0 -4.65122849614E+01 -1.95087934256E+01  3.29013949325E+01  8.50087493247E+01  6.00000000000E+01  0.0000E+00  9.0
       -4    1    4    4    0  504  9.65094517296E+00  9.92946024242E+01  3.93397869072E+01  1.07248930882E+02  1.46817165330E+00  0.0000E+00  9.0
        3    1    4    4  504    0 -1.55019636913E+01 -1.10599123164E+01  9.79285244365E-01  1.90691252637E+01  2.00000000000E-01  0.0000E+00  9.0
  3000022    1    4    4    0    0  5.76814736306E+01  5.26943492953E+01  1.25412669517E+01  9.93032236366E+01  6.00000000000E+01  0.0000E+00  9.0
</event>
<event>
10    1   3.4312288E-02   4.9680000E+02  -1.0000000E+00   9.3560000E-02
       11   -1    0    0    0    0  0.00000000000E+00  0.00000000000E+00  2.46808518510E+02  2.46808518510E+02  0.00000000000E+00  0.0000E+00  9.0
      -11   -1    0    0    0    0  0.00000000000E+00  0.00000000000E+00 -2.50000000000E+02  2.50000000000E+02  0.00000000000E+00  0.0000E+00  9.0
  3000025    2    1    2    0    0  4.49514201092E+01  1.47188330677E+02 -1.12928320450E+02  2.49148071748E+02  1.60115337301E+02  5.3066E-14  9.0
 -3000025    2    1    2    0    0 -4.49514201092E+01 -1.47188330677E+02  1.09736838960E+02  2.47660446760E+02  1.60026523449E+02  2.1535E-12  9.0
        4    1    3    3  500    0  1.78088326401E+01  1.09372840331E+02 -7.82244483346E+01  1.35649521073E+02  1.46817165330E+00  0.0000E+00  9.0
       -3    1    3    3    0  500 -1.43257679936E+00  1.43125560691E+01  1.97436790594E+01  2.44285570658E+01  2.00000000000E-01  0.0000E+00  9.0
  3000022    1    3    3    0    0  2.85751642680E+01  2.35029342751E+01 -5.44475511732E+01  8.90699936075E+01  6.00000000000E+01  0.0000E+00  9.0
      -14    1    4    4    0    0 -1.76211237001E+00 -9.96571084901E+01  9.05858160490E+01  1.34686429836E+02  0.00000000000E+00  0.0000E+00  9.0
       13    1    4    4    0    0 -1.83827185267E+01  1.09984184018E+01  1.36216180012E+01  2.53860039635E+01  1.05700000000E-01  0.0000E+00  9.0
  3000022    1    4    4    0    0 -2.48065892127E+01 -5.85296405879E+01  5.52940490933E+00  8.75880129605E+01  6.00000000000E+01  0.0000E+00  9.0
</event>
<event>
10    1   3.4312288E-02   4.7700000E+02  -1.0000000E+00   9.4010000E-02
       11   -1    0    0    0    0  0.00000000000E+00  0.00000000000E+00  2.37265469510E+02  2.37265469510E+02  0.00000000000E+00  0.0000E+00  9.0
      -11   -1    0    0    0    0  0.00000000000E+00  0.00000000000E+00 -2.39772768700E+02  2.39772768700E+02  0.00000000000E+00  0.0000E+00  9.0
  3000025    2    1    2    0    0 -8.88277990520E+01  1.52756492450E+02  7.49414289106E+00  2.38464788957E+02  1.59951147307E+02  1.9971E-12  9.0
 -3000025    2    1    2    0    0  8.88277990520E+01 -1.52756492450E+02 -1.00014420814E+01  2.38573449265E+02  1.59976054396E+02  2.8383E-12  9.0
       14    1    3    3    0    0 -2.29123937262E+01  6.39366496638E+01 -3.83478351777E+01  7.79963423458E+01  0.00000000000E+00  0.0000E+00  9.0
      -13    1    3    3    0    0 -1.44927107152E+01  6.43531498920E+01  4.08644836754E+01  7.75969314048E+01  1.05700000000E-01  0.0000E+00  9.0
  3000022    1    3    3    0    0 -5.14226946115E+01  2.44666928947E+01  4.97749439379E+00  8.28715152073E+01  6.00000000000E+01  0.0000E+00  9.0
       -4    1    4    4    0  500  7.90533996296E+00 -9.10200513661E+00 -2.75367208672E+01  3.00959701880E+01  1.46817165330E+00  0.0000E+00  9.0
        3    1    4    4  500    0  8.38227835193E+01 -7.05409938739E+01  2.85470277945E+01  1.13213354555E+02  2.00000000000E-01  0.0000E+00  9.0
  3000022    1    4    4    0    0 -2.90032442944E+00 -7.31134934404E+01 -1.10117490090E+01  9.52641245228E+01  6.00000000000E+01  0.0000E+00  9.0
</event>
<event>
10    1   3.4312288E-02   4.9740000E+02  -1.0000000E+00   9.3550000E-02
       11   -1    0    0    0    0  0.00000000000E+00  0.00000000000E+00  2.49929721390E+02  2.49929721390E+02  0.00000000000E+00  0.0000E+00  9.0
      -11   -1    0    0    0    0  0.00000000000E+00  0.00000000000E+00 -2.47441022950E+02  2.47441022950E+02  0.00000000000E+00  0.0000E+00  9.0
  3000025    2    1    2    0    0 -7.81876953266E+01  1.66548735956E+02 -4.31301676399E+01  2.49303119175E+02  1.62603925909E+02  1.5389E-12  9.0
 -3000025    2    1    2    0    0  7.81876953266E+01 -1.66548735956E+02  4.56188660869E+01  2.48067625162E+02  1.60014588590E+02  2.3889E-12  9.0
        4    1    3    3  500    0 -3.83080000150E+01  3.67082039569E+01 -6.68986208447E+01  8.53965813239E+01  1.46817165330E+00  0.0000E+00  9.0
       -3    1    3    3    0  500 -1.40164518573E+01  7.26061342634E+01  3.61520246560E-01  7.39478353451E+01  2.00000000000E-01  0.0000E+00  9.0
  3000022    1    3    3    0    0 -2.58632434540E+01  5.72343977346E+01  2.34069329582E+01  8.99587025057E+01  6.00000000000E+01  0.0000E+00  9.0
       -2    1    4    4    0  504 -2.20060578660E+01 -9.06036975798E+00  2.85074268500E+00  2.39683880520E+01  3.00000000000E-03  0.0000E+00  9.0
        1    1    4    4  504    0  6.85825886083E+01 -2.93259219383E+01  8.22242791471E+00  7.50412520122E+01  5.00000000000E-03  0.0000E+00  9.0
  3000022    1    4    4    0    0  3.16111645841E+01 -1.28162444258E+02  3.45456954871E+01  1.49057985097E+02  6.00000000000E+01  0.0000E+00  9.0
</event>
<event>
10    1   3.4312288E-02   3.9150000E+02  -1.0000000E+00   9.6280000E-02
       11   -1    0    0    0    0  0.00000000000E+00  0.00000000000E+00  1.53283821360E+02  1.53283821360E+02  0.00000000000E+00  0.0000E+00  9.0
      -11   -1    0    0    0    0  0.00000000000E+00  0.00000000000E+00 -2.49999971460E+02  2.49999971460E+02  0.00000000000E+00  0.0000E+00  9.0
  3000025    2    1    2    0    0  8.96681676416E-01 -1.12751814117E+02 -4.45654107769E+01  2.00697495669E+02  1.59936341416E+02  5.7045E-13  9.0
 -3000025    2    1    2    0    0 -8.96681676416E-01  1.12751814117E+02 -5.21507393211E+01  2.02586297140E+02  1.60024162402E+02  3.2134E-12  9.0
        2    1    3    3  500    0  3.75906381987E+01 -3.92540084922E+01 -2.35752975542E+01  5.92429567683E+01  3.00000000000E-03  0.0000E+00  9.0
       -1    1    3    3    0  500 -4.28387766542E+01 -2.30958189912E+01 -3.71288382043E+01  6.12137916773E+01  5.00000000000E-03  0.0000E+00  9.0
  3000022    1    3    3    0    0  6.14482013228E+00 -5.04019866338E+01  1.61387249805E+01  8.02407472242E+01  6.00000000000E+01  0.0000E+00  9.0
       -4    1    4    4    0  504 -1.43833771061E+01  6.80389572046E+01  6.82138808919E+00  6.98918314106E+01  1.46817165330E+00  0.0000E+00  9.0
        3    1    4    4  504    0  3.72807511553E+01  3.20026106745E+01 -4.22905078460E+01  6.48270664967E+01  2.00000000000E-01  0.0000E+00  9.0
  3000022    1    4    4    0    0 -2.37940557256E+01  1.27102462380E+01 -1.66816195643E+01  6.78673992326E+01  6.00000000000E+01  0.0000E+00  9.0
</event>
<event>
10    1   3.4312288E-02   4.9940000E+02  -1.0000000E+00   9.3500000E-02
       11   -1    0    0    0    0  0.00000000000E+00  0.00000000000E+00  2.49997414920E+02  2.49997414920E+02  0.00000000000E+00  0.0000E+00  9.0
      -11   -1    0    0    0    0  0.00000000000E+00  0.00000000000E+00 -2.49443610580E+02  2.49443610580E+02  0.00000000000E+00  0.0000E+00  9.0
  3000025    2    1    2    0    0  6.99476116797E+01  1.56810167752E+02  8.58790173058E+01  2.49684657324E+02  1.59640613251E+02  5.6766E-12  9.0
 -3000025    2    1    2    0    0 -6.99476116797E+01 -1.56810167752E+02 -8.53252129638E+01  2.49756368187E+02  1.60049224904E+02  1.2103E-12  9.0
        4    1    3    3  500    0  2.07785056230E-01 -1.42195537986E+00 -2.24815129443E+01  2.25751873525E+01  1.46817165330E+00  0.0000E+00  9.0
       -3    1    3    3    0  500  5.91134669816E+01  6.34991768467E+01  4.21505881311E+01  9.64534059461E+01  2.00000000000E-01  0.0000E+00  9.0
  3000022    1    3    3    0    0  1.06263596418E+01  9.47329462853E+01  6.62099421190E+01  1.30656064025E+02  6.00000000000E+01  0.0000E+00  9.0
      -14    1    4    4    0    0  1.53515439974E+01 -5.81607665458E-01  1.24615089763E+01  1.97812379933E+01  0.00000000000E+00  0.0000E+00  9.0
       13    1    4    4    0    0 -5.92795501317E+01 -3.87581774071E+01 -5.22921273262E+01  8.80382821988E+01  1.05700000000E-01  0.0000E+00  9.0
  3000022    1    4    4    0    0 -2.60196055454E+01 -1.17470382680E+02 -4.54945946146E+01  1.41936847995E+02  6.00000000000E+01  0.0000E+00  9.0
</event>
<event>
10    1   3.4312288E-02   4.9970000E+02  -1.0000000E+00   9.3500000E-02
       11   -1    0    0    0    0  0.00000000000E+00  0.00000000000E+00  2.49672904800E+02  2.49672904800E+02  0.00000000000E+00  0.0000E+00  9.0
      -11   -1    0    0    0    0  0.00000000000E+00  0.00000000000E+00 -2.50000000000E+02  2.50000000000E+02  0.00000000000E+00  0.0000E+00  9.0
  3000025    2    1    2    0    0  1.45556387241E+02  1.17445162294E+02  4.27841661581E+01  2.49817342222E+02  1.59994348614E+02  7.7114E-13  9.0
 -3000025    2    1    2    0    0 -1.45556387241E+02 -1.17445162294E+02 -4.31112613531E+01  2.49855562583E+02  1.59966225452E+02  8.7349E-13  9.0
        4    1    3    3  500    0 -1.13930297645E+00  5.48556926035E+01  3.17019356873E+01  6.33846454326E+01  1.46817165330E+00  0.0000E+00  9.0
       -3    1    3    3    0  500  3.66637832823E+01 -1.39028250920E+01  4.34059069309E+00  3.94512645891E+01  2.00000000000E-01  0.0000E+00  9.0
  3000022    1    3    3    0    0  1.10031906935E+02  7.64922947821E+01  6.74163977734E+00  1.46981432200E+02  6.00000000000E+01  0.0000E+00  9.0
       -4    1    4    4    0  504 -1.23656545976E+01  1.73826654180E+01  9.04096537660E+00  2.32155347474E+01  1.46817165330E+00  0.0000E+00  9.0
        3    1    4    4  504    0 -6.31937534873E+01 -9.18109487143E+01  1.82533916187E+00  1.11472295422E+02  2.00000000000E-01  0.0000E+00  9.0
  3000022    1    4    4    0    0 -6.99969791562E+01 -4.30168789973E+01 -5.39775658916E+01  1.15167732413E+02  6.00000000000E+01  0.0000E+00  9.0
</event>
<event>
10    1   3.4312288E-02   4.9280000E+02  -1.0000000E+00   9.3650000E-02
       11   -1    0    0    0    0  0.00000000000E+00  0.00000000000E+00  2.44627793270E+02  2.44627793270E+02  0.00000000000E+00  0.0000E+00  9.0
      -11   -1    0    0    0    0  0.00000000000E+00  0.00000000000E+00 -2.48142080160E+02  2.48142080160E+02  0.00000000000E+00  0.0000E+00  9.0
  3000025    2    1    2    0    0  4.31262374479E+01 -1.26034846062E+01  1.80288192441E+02  2.45175779280E+02  1.59964403013E+02  1.3808E-13  9.0
 -3000025    2    1    2    0    0 -4.31262374479E+01  1.26034846062E+01 -1.83802479341E+02  2.47594094151E+02  1.59689585967E+02  2.1018E-13  9.0
        4    1    3    3  500    0  3.00117531834E+01 -2.13972185618E+01  5.17627469822E+00  3.72491025271E+01  1.46817165330E+00  0.0000E+00  9.0
       -3    1    3    3    0  500  2.83868510851E+01 -7.33696179634E+00  1.19851391748E+02  1.23385738344E+02  2.00000000000E-01  0.0000E+00  9.0
  3000022    1    3    3    0    0 -1.52723668207E+01  1.61306957521E+01  5.52605259934E+01  8.45409384075E+01  6.00000000000E+01  0.0000E+00  9.0
       -4    1    4    4    0  504 -5.68351996066E+01 -1.71249277647E+01 -4.75457107775E+01  7.60674253975E+01  1.46817165330E+00  0.0000E+00  9.0
        3    1    4    4  504    0 -2.70270549750E+00  3.18118435139E+01 -8.53310166617E+01  9.11082894652E+01  2.00000000000E-01  0.0000E+00  9.0
  3000022    1    4    4    0    0  1.64116676573E+01 -2.08343114320E+00 -5.09257519012E+01  8.04183792881E+01  6.00000000000E+01  0.0000E+00  9.0
</event>
<event>
10    1   3.4312288E-02   4.9010000E+02  -1.0000000E+00   9.3710000E-02
       11   -1    0    0    0    0  0.00000000000E+00  0.00000000000E+00  2.49999999820E+02  2.49999999820E+02  0.00000000000E+00  0.0000E+00  9.0
      -11   -1    0    0    0    0  0.00000000000E+00  0.00000000000E+00 -2.40153594990E+02  2.40153594990E+02  0.00000000000E+00  0.0000E+00  9.0
  3000025    2    1    2    0    0 -1.05882267181E+02 -1.50428774070E+02  2.16192765942E+01  2.46050370336E+02  1.61967654334E+02  4.0274E-13  9.0
 -3000025    2    1    2    0    0  1.05882267181E+02  1.50428774070E+02 -1.17728717672E+01  2.44103224473E+02  1.60024726579E+02  2.9889E-12  9.0
        2    1    3    3  500    0 -5.41709184901E+00 -6.05896226455E+01 -8.83965296238E+00  6.14702101015E+01  3.00000000000E-03  0.0000E+00  9.0
       -1    1    3    3    0  500  8.84166668836E+00 -3.26332703435E+01  3.31720711201E+01  4.73655120371E+01  5.00000000000E-03  0.0000E+00  9.0
  3000022    1    3    3    0    0 -1.09306842021E+02 -5.72058810807E+01 -2.71314156349E+00  1.37214648197E+02  6.00000000000E+01  0.0000E+00  9.0
       -4    1    4    4    0  504  4.51712080098E+01  8.33024119741E+01 -4.06337987933E+01  1.03116395428E+02  1.46817165330E+00  0.0000E+00  9.0
        3    1    4    4  504    0  2.68420249741E+01  5.12999055287E+01  3.86574893851E+01  6.96176421429E+01  2.00000000000E-01  0.0000E+00  9.0
  3000022    1    4    4    0    0  3.38690341976E+01  1.58264565674E+01 -9.79656235972E+00  7.13691869018E+01  6.00000000000E+01  0.0000E+00  9.0
</event>
<event>
10    1   3.4312288E-02   4.8290000E+02  -1.0000000E+00   9.3880000E-02
       11   -1    0    0    0    0  0.00000000000E+00  0.00000000000E+00  2.41340504170E+02  2.41340504170E+02  0.00000000000E+00  0.0000E+00  9.0
      -11   -1    0    0    0    0  0.00000000000E+00  0.00000000000E+00 -2.41555334620E+02  2.41555334620E+02  0.00000000000E+00  0.0000E+00  9.0
  3000025    2    1    2    0    0 -1.56224675137E+01  1.77763700194E+02 -3.01649116349E+01  2.41351869931E+02  1.59677201339E+02  1.8080E-12  9.0
 -3000025    2    1    2    0    0  1.56224675137E+01 -1.77763700194E+02  2.99500811809E+01  2.41543968860E+02  1.60007771473E+02  2.9583E-13  9.0
        4    1    3    3  500    0 -1.12601548817E+01  8.53738078071E+01 -5.78600715448E+01  1.03756549454E+02  1.46817165330E+00  0.0000E+00  9.0
       -3    1    3    3    0  500  2.03006084771E+01  2.47725516718E-01 -3.65249055354E+00  2.06290271152E+01  2.00000000000E-01  0.0000E+00  9.0
  3000022    1    3    3    0    0 -2.46629211090E+01  9.21421668701E+01  3.13476504637E+01  1.16966293362E+02  6.00000000000E+01  0.0000E+00  9.0
       -4    1    4    4    0  504  1.66059953888E+01 -1.17457750782E+02  3.91858191365E+01  1.24939050145E+02  1.46817165330E+00  0.0000E+00  9.0
        3    1    4    4  504    0 -2.90678580064E+01 -2.41241275358E+01 -1.55645173829E+01  4.08559432617E+01  2.00000000000E-01  0.0000E+00  9.0
  3000022    1    4    4    0    0  2.80843301310E+01 -3.61818218766E+01  6.32877942694E+00  7.57489754535E+01  6.00000000000E+01  0.0000E+00  9.0
</event>
<event>
10    1   3.4312288E-02   5.0000000E+02  -1.0000000E+00   9.3490000E-02
       11   -1    0    0    0    0  0.00000000000E+00  0.00000000000E+00  2.50000000000E+02  2.50000000000E+02  0.00000000000E+00  0.0000E+00  9.0
      -11   -1    0    0    0    0  0.00000000000E+00  0.00000000000E+00 -2.50000000000E+02  2.50000000000E+02  0.00000000000E+00  0.0000E+00  9.0
  3000025    2    1    2    0    0 -2.22028900791E+01  1.24893324265E+02  1.44294510983E+02  2.49988560455E+02  1.59943939193E+02  1.5826E-12  9.0
 -3000025    2    1    2    0    0  2.22028900791E+01 -1.24893324265E+02 -1.44294510983E+02  2.50011439549E+02  1.59979696311E+02  2.0194E-12  9.0
        4    1    3    3  500    0  1.21103669550E+01  7.32865874345E+01  1.25397728873E+02  1.45754350947E+02  1.46817165330E+00  0.0000E+00  9.0
       -3    1    3    3    0  500 -1.72434415787E+01  3.18481002889E+01  3.40706885615E-01  3.62186947676E+01  2.00000000000E-01  0.0000E+00  9.0
  3000022    1    3    3    0    0 -1.70698154549E+01  1.97586365417E+01  1.85560752249E+01  6.80155147404E+01  6.00000000000E+01  0.0000E+00  9.0
       -2    1    4    4    0  504 -5.91397597732E+00 -7.17589258705E+01 -1.89670028118E+01  7.44584834563E+01  3.00000000000E-03  0.0000E+00  9.0
        1    1    4    4  504    0 -1.55883399810E+01  1.44190608895E+01 -3.26097368468E+01  3.89140157593E+01  5.00000000000E-03  0.0000E+00  9.0
  3000022    1    4    4    0    0  4.37052060384E+01 -6.75534592847E+01 -9.27177713250E+01  1.36638940334E+02  6.00000000000E+01  0.0000E+00  9.0
</event>
<event>
10    1   3.4312288E-02   4.4560000E+02  -1.0000000E+00   9.4780000E-02
       11   -1    0    0    0    0  0.00000000000E+00  0.00000000000E+00  2.49980235600E+02  2.49980235600E+02  0.00000000000E+00  0.0000E+00  9.0
      -11   -1    0    0    0    0  0.00000000000E+00  0.00000000000E+00 -1.98591685250E+02  1.98591685250E+02  0.00000000000E+00  0.0000E+00  9.0
  3000025    2    1    2    0    0 -9.96563181945E+01 -1.01825192982E+02 -3.57274934432E+01  2.17210554070E+02  1.60013184863E+02  3.7097E-13  9.0
 -3000025    2    1    2    0    0  9.96563181945E+01  1.01825192982E+02  8.71160437902E+01  2.31361366776E+02  1.60122219786E+02  1.6197E-12  9.0
        2    1    3    3  500    0 -6.66730536539E+01 -2.46736022611E+01 -1.52206732416E+01  7.27031748619E+01  3.00000000000E-03  0.0000E+00  9.0
       -1    1    3    3    0  500 -1.60826102788E+01 -7.52429295104E+01 -2.75962181607E+01  8.17416667096E+01  5.00000000000E-03  0.0000E+00  9.0
  3000022    1    3    3    0    0 -1.69006542618E+01 -1.90866121062E+00  7.08939795875E+00  6.27657124990E+01  6.00000000000E+01  0.0000E+00  9.0
       -4    1    4    4    0  504 -5.87939602816E+00  1.22719176938E+00 -2.51801404990E+01  2.59281372422E+01  1.46817165330E+00  0.0000E+00  9.0
        3    1    4    4  504    0  6.16191432531E+01  2.75630283047E+01  3.82932919782E+01  7.76083471999E+01  2.00000000000E-01  0.0000E+00  9.0
  3000022    1    4    4    0    0  4.39165709692E+01  7.30349729075E+01  7.40028923109E+01  1.27824882334E+02  6.00000000000E+01  0.0000E+00  9.0
</event>
<event>
10    1   3.4312288E-02   4.9070000E+02  -1.0000000E+00   9.3700000E-02
       11   -1    0    0    0    0  0.00000000000E+00  0.00000000000E+00  2.41251286800E+02  2.41251286800E+02  0.00000000000E+00  0.0000E+00  9.0
      -11   -1    0    0    0    0  0.00000000000E+00  0.00000000000E+00 -2.49547887190E+02  2.49547887190E+02  0.00000000000E+00  0.0000E+00  9.0
  3000025    2    1    2    0    0 -1.27992731627E+02 -1.34547011137E+02  3.99436769264E+00  2.45120712881E+02  1.59947401838E+02  5.8529E-13  9.0
 -3000025    2    1    2    0    0  1.27992731627E+02  1.34547011137E+02 -1.22909680896E+01  2.45678461105E+02  1.60380175829E+02  1.8409E-13  9.0
        4    1    3    3  500    0 -1.84668329846E+00 -1.12046238351E+01 -3.85774628588E+01  4.02408996310E+01  1.46817165330E+00  0.0000E+00  9.0
       -3    1    3    3    0  500 -2.14864747064E+01 -3.24142621356E+01  3.70466523339E+01  5.37107757740E+01  2.00000000000E-01  0.0000E+00  9.0
  3000022    1    3    3    0    0 -1.04659573622E+02 -9.09281251661E+01  5.52517821715E+00  1.51169037475E+02  6.00000000000E+01  0.0000E+00  9.0
      -14    1    4    4    0    0  2.87220570154E+00  2.90456548706E+01 -4.09996219317E+01  5.03276130071E+01  0.00000000000E+00  0.0000E+00  9.0
       13    1    4    4    0    0  3.62580133869E+01  6.02511325754E+01  3.55022292664E+01  7.87734851759E+01  1.05700000000E-01  0.0000E+00  9.0
  3000022    1    4    4    0    0  8.88625125378E+01  4.52502236908E+01 -6.79357542469E+00  1.16577362921E+02  6.00000000000E+01  0.0000E+00  9.0
</event>
<event>
10    1   3.4312288E-02   4.8310000E+02  -1.0000000E+00   9.3870000E-02
       11   -1    0    0    0    0  0.00000000000E+00  0.00000000000E+00  2.49999980490E+02  2.49999980490E+02  0.00000000000E+00  0.0000E+00  9.0
      -11   -1    0    0    0    0  0.00000000000E+00  0.00000000000E+00 -2.33421528710E+02  2.33421528710E+02  0.00000000000E+00  0.0000E+00  9.0
  3000025    2    1    2    0    0  1.35953485138E+02  6.08116552418E+01  1.11246289287E+02  2.45272655829E+02  1.60004785187E+02  3.1571E-12  9.0
 -3000025    2    1    2    0    0 -1.35953485138E+02 -6.08116552418E+01 -9.46678375014E+01  2.38148853376E+02  1.59910816935E+02  5.1207E-13  9.0
        4    1    3    3  500    0  1.05127400481E+02  6.72773104428E+01  7.36608197508E+01  1.44934739544E+02  1.46817165330E+00  0.0000E+00  9.0
       -3    1    3    3    0  500 -1.51971420964E+01  5.43162562695E+00  9.91307033594E+00  1.89410836104E+01  2.00000000000E-01  0.0000E+00  9.0
  3000022    1    3    3    0    0  4.60232267526E+01 -1.18972808286E+01  2.76723992000E+01  8.13968326738E+01  6.00000000000E+01  0.0000E+00  9.0
       -2    1    4    4    0  504  2.49066853958E+01 -2.15604965503E+01 -7.21023514292E+00  3.37221809603E+01  3.00000000000E-03  0.0000E+00  9.0
        1    1    4    4  504    0 -6.27230352613E+01 -2.79649149719E+01 -4.00810517662E+01  7.95154472883E+01  5.00000000000E-03  0.0000E+00  9.0
  3000022    1    4    4    0    0 -9.81371352720E+01 -1.12862437192E+01 -4.73765505919E+01  1.24911225127E+02  6.00000000000E+01  0.0000E+00  9.0
</event>
<event>
10    1   3.4312288E-02   4.5860000E+02  -1.0000000E+00   9.4460000E-02
       11   -1    0    0    0    0  0.00000000000E+00  0.00000000000E+00  2.39328263470E+02  2.39328263470E+02  0.00000000000E+00  0.0000E+00  9.0
      -11   -1    0    0    0    0  0.00000000000E+00  0.00000000000E+00 -2.19685261140E+02  2.19685261140E+02  0.00000000000E+00  0.0000E+00  9.0
  3000025    2    1    2    0    0  2.87971491667E+01  1.50935321706E+02  6.77306448639E+01  2.32133564000E+02  1.60274153073E+02  1.1187E-12  9.0
 -3000025    2    1    2    0    0 -2.87971491667E+01 -1.50935321706E+02 -4.80876425319E+01  2.26879960607E+02  1.59847890265E+02  7.2380E-14  9.0
        4    1    3    3  500    0  5.59987490400E+01  8.71223304377E+01  1.80217445186E+01  1.05133720368E+02  1.46817165330E+00  0.0000E+00  9.0
       -3    1    3    3    0  500 -2.39672791780E+00  4.34699689201E-01  3.49990594224E+01  3.50842903447E+01  2.00000000000E-01  0.0000E+00  9.0
  3000022    1    3    3    0    0 -2.48048719556E+01  6.33782915789E+01  1.47098409228E+01  9.19155532876E+01  6.00000000000E+01  0.0000E+00  9.0
      -14    1    4    4    0    0  5.35007340312E+00  1.07908922219E+01 -2.79575553766E+01  3.04416087453E+01  0.00000000000E+00  0.0000E+00  9.0
       13    1    4    4    0    0 -2.10426403651E+01 -5.66514553577E+01  2.66534374747E+01  6.60499584359E+01  1.05700000000E-01  0.0000E+00  9.0
  3000022    1    4    4    0    0 -1.31045822049E+01 -1.05074758570E+02 -4.67835246290E+01  1.30388393425E+02  6.00000000000E+01  0.0000E+00  9.0
</event>
<event>
10    1   3.4312288E-02   4.9390000E+02  -1.0000000E+00   9.3630000E-02
       11   -1    0    0    0    0  0.00000000000E+00  0.00000000000E+00  2.50000000000E+02  2.50000000000E+02  0.00000000000E+00  0.0000E+00  9.0
      -11   -1    0    0    0    0  0.00000000000E+00  0.00000000000E+00 -2.43904441220E+02  2.43904441220E+02  0.00000000000E+00  0.0000E+00  9.0
  3000025    2    1    2    0    0 -3.72042789783E+01  1.81886524385E+02  3.33965367009E+01  2.47311350487E+02  1.59939705168E+02  2.8341E-13  9.0
 -3000025    2    1    2    0    0  3.72042789783E+01 -1.81886524385E+02 -2.73009779239E+01  2.46593090730E+02  1.59987320976E+02  9.5379E-13  9.0
        2    1    3    3  500    0  3.26501233353E+01  5.08406746076E+01  5.36652870754E+00  6.06597427273E+01  3.00000000000E-03  0.0000E+00  9.0
       -1    1    3    3    0  500 -3.32700915832E+01 -7.76780646743E-01  1.55916562031E+01  3.67505394556E+01  5.00000000000E-03  0.0000E+00  9.0
  3000022    1    3    3    0    0 -3.65843107305E+01  1.31822630424E+02  1.24383517903E+01  1.49901068304E+02  6.00000000000E+01  0.0000E+00  9.0
       -4    1    4    4    0  504  2.55950219530E-01  9.34450456177E+00 -1.30284734847E+01  1.61022335520E+01  1.46817165330E+00  0.0000E+00  9.0
        3    1    4    4  504    0  4.68882196904E+01 -1.46728187371E+02 -1.77012747749E+01  1.55051737313E+02  2.00000000000E-01  0.0000E+00  9.0
  3000022    1    4    4    0    0 -9.93989093218E+00 -4.45028415749E+01  3.42877033607E+00  7.54391198650E+01  6.00000000000E+01  0.0000E+00  9.0
</event>
<event>
10    1   3.4312288E-02   4.7920000E+02  -1.0000000E+00   9.3960000E-02
       11   -1    0    0    0    0  0.00000000000E+00  0.00000000000E+00  2.32116287570E+02  2.32116287570E+02  0.00000000000E+00  0.0000E+00  9.0
      -11   -1    0    0    0    0  0.00000000000E+00  0.00000000000E+00 -2.47366371070E+02  2.47366371070E+02  0.00000000000E+00  0.0000E+00  9.0
  3000025    2    1    2    0    0 -7.23067456823E+01 -1.47991490994E+02 -7.80262171355E+01  2.41394000801E+02  1.58282109490E+02  1.7309E-13  9.0
 -3000025    2    1    2    0    0  7.23067456823E+01  1.47991490994E+02  6.27761336365E+01  2.38088657834E+02  1.60048802423E+02  1.0277E-12  9.0
       14    1    3    3    0    0  2.83441852617E+01 -5.32046359821E+01 -5.30465216133E+01  8.02998106063E+01  0.00000000000E+00  0.0000E+00  9.0
      -13    1    3    3    0    0 -4.17976520526E+01 -4.13010732861E+01 -1.69142887034E+01  6.11467636635E+01  1.05700000000E-01  0.0000E+00  9.0
  3000022    1    3    3    0    0 -5.88532788915E+01 -5.34857817268E+01 -8.06540681950E+00  9.99474265320E+01  6.00000000000E+01  0.0000E+00  9.0
       -2    1    4    4    0  500 -1.12228262034E+01  1.70444674165E+01  3.44335323909E+01  4.00266643554E+01  3.00000000000E-03  0.0000E+00  9.0
        1    1    4    4  500    0 -2.11006014101E+01  1.32938919439E+01 -6.99940908540E+00  2.59027931974E+01  5.00000000000E-03  0.0000E+00  9.0
  3000022    1    4    4    0    0  1.04630173296E+02  1.17653131634E+02  3.53420103308E+01  1.72159200281E+02  6.00000000000E+01  0.0000E+00  9.0
</event>
<event>
10    1   3.4312288E-02   4.8490000E+02  -1.0000000E+00   9.3830000E-02
       11   -1    0    0    0    0  0.00000000000E+00  0.00000000000E+00  2.45746427860E+02  2.45746427860E+02  0.00000000000E+00  0.0000E+00  9.0
      -11   -1    0    0    0    0  0.00000000000E+00  0.00000000000E+00 -2.39235782540E+02  2.39235782540E+02  0.00000000000E+00  0.0000E+00  9.0
  3000025    2    1    2    0    0 -1.45631128468E+02 -8.83384211011E+00  1.12371269991E+02  2.43984285593E+02  1.60045515250E+02  3.6276E-13  9.0
 -3000025    2    1    2    0    0  1.45631128468E+02  8.83384211011E+00 -1.05860624671E+02  2.40997924808E+02  1.59959574771E+02  4.3508E-12  9.0
        4    1    3    3  500    0  2.33069997218E+01 -1.26488594514E+01  1.69728379873E+01  3.15189250895E+01  1.46817165330E+00  0.0000E+00  9.0
       -3    1    3    3    0  500 -5.45402223710E+01  2.26271288876E+01  3.48646707081E+01  6.85726482029E+01  2.00000000000E-01  0.0000E+00  9.0
  3000022    1    3    3    0    0 -1.14397905819E+02 -1.88121115464E+01  6.05337612955E+01  1.43892712300E+02  6.00000000000E+01  0.0000E+00  9.0
       -2    1    4    4    0  504 -1.40493412086E+01  2.32281043387E+01 -1.26046085515E+01  2.99300014250E+01  3.00000000000E-03  0.0000E+00  9.0
        1    1    4    4  504    0  3.28344440068E+01  2.96651363610E+00  1.16967087878E+01  3.49816228591E+01  5.00000000000E-03  0.0000E+00  9.0
  3000022    1    4    4    0    0  1.26846025669E+02 -1.73607758644E+01 -1.04952724907E+02  1.76086300524E+02  6.00000000000E+01  0.0000E+00  9.0
</event>
<event>
10    1   3.4312288E-02   4.3950000E+02  -1.0000000E+00   9.4940000E-02
       11   -1    0    0    0    0  0.00000000000E+00  0.00000000000E+00  2.49410581820E+02  2.49410581820E+02  0.00000000000E+00  0.0000E+00  9.0
      -11   -1    0    0    0    0  0.00000000000E+00  0.00000000000E+00 -1.93637159530E+02  1.93637159530E+02  0.00000000000E+00  0.0000E+00  9.0
  3000025    2    1    2    0    0  4.27552908084E+01 -1.16376428131E+02 -5.86085965990E+01  2.10501477215E+02  1.59701021906E+02  3.6760E-12  9.0
 -3000025    2    1    2    0    0 -4.27552908084E+01  1.16376428131E+02  1.14382018892E+02  2.32546264142E+02  1.60071955082E+02  1.1564E-12  9.0
        2    1    3    3  500    0  2.97378945778E+01  5.27136494876E+00 -4.91584684152E+00  3.05989415097E+01  3.00000000000E-03  0.0000E+00  9.0
       -1    1    3    3    0  500  2.56272556494E+01 -1.05048525361E+02 -3.60352398275E+01  1.13975819572E+02  5.00000000000E-03  0.0000E+00  9.0
  3000022    1    3    3    0    0 -1.26098594181E+01 -1.65992677198E+01 -1.76575099300E+01  6.59267161347E+01  6.00000000000E+01  0.0000E+00  9.0
       -4    1    4    4    0  504  2.84515874066E+00  4.97030990086E+01  9.57972654503E+01  1.07971128433E+02  1.46817165330E+00  0.0000E+00  9.0
        3    1    4    4  504    0 -5.13512644950E+00 -9.55510471600E+00 -1.09289282313E+01  1.53997085061E+01  2.00000000000E-01  0.0000E+00  9.0
  3000022    1    4    4    0    0 -4.04653230988E+01  7.62284338385E+01  2.95136816730E+01  1.09175427203E+02  6.00000000000E+01  0.0000E+00  9.0
</event>
<event>
10    1   3.4312288E-02   4.8850000E+02  -1.0000000E+00   9.3750000E-02
       11   -1    0    0    0    0  0.00000000000E+00  0.00000000000E+00  2.41199316440E+02  2.41199316440E+02  0.00000000000E+00  0.0000E+00  9.0
      -11   -1    0    0    0    0  0.00000000000E+00  0.00000000000E+00 -2.47332659660E+02  2.47332659660E+02  0.00000000000E+00  0.0000E+00  9.0
  3000025    2    1    2    0    0 -1.57733175381E+02 -9.57788742175E+01 -3.51581616656E-02  2.44254923959E+02  1.60022246203E+02  1.5767E-12  9.0
 -3000025    2    1    2    0    0  1.57733175381E+02  9.57788742175E+01 -6.09818506607E+00  2.44277052145E+02  1.59939810495E+02  1.5235E-12  9.0
        4    1    3    3  500    0  1.15402508712E+01  4.27678795543E+00  6.52553779412E+00  1.40073722336E+01  1.46817165330E+00  0.0000E+00  9.0
       -3    1    3    3    0  500 -1.01940757310E+02 -8.63067882715E+01  2.03994938808E+01  1.35118315018E+02  2.00000000000E-01  0.0000E+00  9.0
  3000022    1    3    3    0    0 -6.73326689420E+01 -1.37488739014E+01 -2.69601898372E+01  9.51292367070E+01  6.00000000000E+01  0.0000E+00  9.0
       -2    1    4    4    0  504  3.96659053102E+01  7.29948606805E+01 -3.31624803276E+00  8.31422349944E+01  3.00000000000E-03  0.0000E+00  9.0
        1    1    4    4  504    0  9.49390895436E+01  1.67056799758E+01 -4.75358992068E+00  9.65148025381E+01  5.00000000000E-03  0.0000E+00  9.0
  3000022    1    4    4    0    0  2.31281805271E+01  6.07833356110E+00  1.97165288737E+00  6.46200146122E+01  6.00000000000E+01  0.0000E+00  9.0
</event>
<event>
10    1   3.4312288E-02   5.0000000E+02  -1.0000000E+00   9.3490000E-02
       11   -1    0    0    0    0  0.00000000000E+00  0.00000000000E+00  2.50000000000E+02  2.50000000000E+02  0.00000000000E+00  0.0000E+00  9.0
      -11   -1    0    0    0    0  0.00000000000E+00  0.00000000000E+00 -2.50000000000E+02  2.50000000000E+02  0.00000000000E+00  0.0000E+00  9.0
  3000025    2    1    2    0    0 -6.01482776192E+01  1.82260072212E+02  8.81040032604E+00  2.50025020080E+02  1.59994807068E+02  1.4034E-12  9.0
 -3000025    2    1    2    0    0  6.01482776192E+01 -1.82260072212E+02 -8.81040032594E+00  2.49974979922E+02  1.59916597668E+02  6.4156E-13  9.0
        2    1    3    3  500    0 -3.16419744039E+00  6.59162086836E+01 -2.85607838738E+01  7.19074203205E+01  3.00000000000E-03  0.0000E+00  9.0
       -1    1    3    3    0  500 -4.91981675569E+01  7.76413340608E+00  8.82054956114E+00  5.05820479822E+01  5.00000000000E-03  0.0000E+00  9.0
  3000022    1    3    3    0    0 -7.78591262184E+00  1.08579730123E+02  2.85506346391E+01  1.27535551777E+02  6.00000000000E+01  0.0000E+00  9.0
       -2    1    4    4    0  504 -1.79881671239E+01 -5.71965238962E+01 -3.82426306012E+01  7.11162098722E+01  3.00000000000E-03  0.0000E+00  9.0
        1    1    4    4  504    0  2.31856382661E+01  1.72597928545E-01  1.74799304036E+01  2.90370729201E+01  5.00000000000E-03  0.0000E+00  9.0
  3000022    1    4    4    0    0  5.49508064779E+01 -1.25236146244E+02  1.19522998717E+01  1.49821697130E+02  6.00000000000E+01  0.0000E+00  9.0
</event>
<event>
10    1   3.4312288E-02   5.0000000E+02  -1.0000000E+00   9.3490000E-02
       11   -1    0    0    0    0  0.00000000000E+00  0.00000000000E+00  2.50000000000E+02  2.50000000000E+02  0.00000000000E+00  0.0000E+00  9.0
      -11   -1    0    0    0    0  0.00000000000E+00  0.00000000000E+00 -2.50000000000E+02  2.50000000000E+02  0.00000000000E+00  0.0000E+00  9.0
  3000025    2    1    2    0    0  1.83626019671E+02 -3.41182697836E+01  4.48617892562E+01  2.49996611219E+02  1.60009856111E+02  7.8433E-13  9.0
 -3000025    2    1    2    0    0 -1.83626019671E+02  3.41182697836E+01 -4.48617892562E+01  2.50003388779E+02  1.60020445045E+02  5.0986E-13  9.0
        4    1    3    3  500    0 -2.20928385212E+00 -1.06404694717E+01 -1.61521421162E+01  1.95230056257E+01  1.46817165330E+00  0.0000E+00  9.0
       -3    1    3    3    0  500  1.02169947164E+02 -3.55675699348E+01  6.59355296772E+01  1.26693662858E+02  2.00000000000E-01  0.0000E+00  9.0
  3000022    1    3    3    0    0  8.36653563588E+01  1.20897696232E+01 -4.92159830592E+00  1.03779942735E+02  6.00000000000E+01  0.0000E+00  9.0
       -2    1    4    4    0  504 -8.99461630075E+01  1.61548131925E+01 -6.81758874852E+01  1.14014217852E+02  3.00000000000E-03  0.0000E+00  9.0
        1    1    4    4  504    0 -6.29514988971E+01  1.98782712046E+01  1.75311133538E+01  6.83035638887E+01  5.00000000000E-03  0.0000E+00  9.0
  3000022    1    4    4    0    0 -3.07283577668E+01 -1.91481461396E+00  5.78298487521E+00  6.76856070381E+01  6.00000000000E+01  0.0000E+00  9.0
</event>
<event>
10    1   3.4312288E-02   4.7180000E+02  -1.0000000E+00   9.4140000E-02
       11   -1    0    0    0    0  0.00000000000E+00  0.00000000000E+00  2.24695948280E+02  2.24695948280E+02  0.00000000000E+00  0.0000E+00  9.0
      -11   -1    0    0    0    0  0.00000000000E+00  0.00000000000E+00 -2.47712067370E+02  2.47712067370E+02  0.00000000000E+00  0.0000E+00  9.0
  3000025    2    1    2    0    0  6.74744220194E+01  1.49183927460E+02  4.46143056126E+01  2.33306924145E+02  1.60103225294E+02  1.4635E-12  9.0
 -3000025    2    1    2    0    0 -6.74744220194E+01 -1.49183927460E+02 -6.76304247066E+01  2.39101091505E+02  1.60582738093E+02  6.8966E-13  9.0
       14    1    3    3    0    0  4.45457724288E+01  5.55427458287E+01 -8.79505200202E+00  7.17403331132E+01  0.00000000000E+00  0.0000E+00  9.0
      -13    1    3    3    0    0  9.76013842130E+00 -1.26899011012E+01 -1.41876613037E+01  2.13914655346E+01  1.05700000000E-01  0.0000E+00  9.0
  3000022    1    3    3    0    0  1.31685111688E+01  1.06331082733E+02  6.75970189194E+01  1.40175125498E+02  6.00000000000E+01  0.0000E+00  9.0
      -14    1    4    4    0    0  8.97086261148E+00 -1.65637333773E+01 -3.65560578504E+01  4.11239468552E+01  0.00000000000E+00  0.0000E+00  9.0
       13    1    4    4    0    0  1.65684001870E+01  6.06606754410E+00  9.46937072508E-01  1.76696610753E+01  1.05700000000E-01  0.0000E+00  9.0
  3000022    1    4    4    0    0 -9.30136848180E+01 -1.38686261628E+02 -3.20213039289E+01  1.80307483575E+02  6.00000000000E+01  0.0000E+00  9.0
</event>
<event>
10    1   3.4312288E-02   4.9620000E+02  -1.0000000E+00   9.3580000E-02
       11   -1    0    0    0    0  0.00000000000E+00  0.00000000000E+00  2.49999996400E+02  2.49999996400E+02  0.00000000000E+00  0.0000E+00  9.0
      -11   -1    0    0    0    0  0.00000000000E+00  0.00000000000E+00 -2.46205730370E+02  2.46205730370E+02  0.00000000000E+00  0.0000E+00  9.0
  3000025    2    1    2    0    0  1.62105278668E+02  2.65874613413E+01 -9.30179583303E+01  2.47249076792E+02  1.59670757905E+02  2.0962E-12  9.0
 -3000025    2    1    2    0    0 -1.62105278668E+02 -2.65874613413E+01  9.68122243613E+01  2.48956649978E+02  1.60068086482E+02  4.3090E-12  9.0
       14    1    3    3    0    0 -2.17017843167E+00  4.18412197113E+01 -1.25317413129E+00  4.19161995743E+01  0.00000000000E+00  0.0000E+00  9.0
      -13    1    3    3    0    0  4.76202497285E+01 -2.04931381616E+01 -1.88860898106E+01  5.51756509408E+01  1.05700000000E-01  0.0000E+00  9.0
  3000022    1    3    3    0    0  1.16655207371E+02  5.23937979191E+00 -7.28786943878E+01  1.50157226277E+02  6.00000000000E+01  0.0000E+00  9.0
       -2    1    4    4    0  500 -9.84504971639E+01  6.96111505216E+00  4.33266405986E+01  1.07787547097E+02  3.00000000000E-03  0.0000E+00  9.0
        1    1    4    4  500    0 -1.88677639314E+01 -4.73078377802E+01  3.78448225087E+01  6.34527749347E+01  5.00000000000E-03  0.0000E+00  9.0
  3000022    1    4    4    0    0 -4.47870175730E+01  1.37592613866E+01  1.56407612547E+01  7.77163279473E+01  6.00000000000E+01  0.0000E+00  9.0
</event>
<event>
10    1   3.4312288E-02   4.2180000E+02  -1.0000000E+00   9.5410000E-02
       11   -1    0    0    0    0  0.00000000000E+00  0.00000000000E+00  1.77914723280E+02  1.77914723280E+02  0.00000000000E+00  0.0000E+00  9.0
      -11   -1    0    0    0    0  0.00000000000E+00  0.00000000000E+00 -2.50000000000E+02  2.50000000000E+02  0.00000000000E+00  0.0000E+00  9.0
  3000025    2    1    2    0    0 -5.20018871908E+01 -1.08277688511E+02  3.16283237693E+01  2.02238849308E+02  1.59599333345E+02  8.3461E-13  9.0
 -3000025    2    1    2    0    0  5.20018871908E+01  1.08277688511E+02 -1.03713600487E+02  2.25675873975E+02  1.60451971217E+02  1.5013E-13  9.0
       14    1    3    3    0    0  1.59194716801E+01 -2.17940020880E+00 -1.77731265986E+01  2.39596200499E+01  0.00000000000E+00  0.0000E+00  9.0
      -13    1    3    3    0    0 -4.67930812221E+01 -1.73452653520E+01  4.77543836908E+01  6.90720132512E+01  1.05700000000E-01  0.0000E+00  9.0
  3000022    1    3    3    0    0 -2.11282776491E+01 -8.87530229505E+01  1.64706667614E+00  1.09207216007E+02  6.00000000000E+01  0.0000E+00  9.0
       -2    1    4    4    0  500  3.95531386387E+01 -7.18006194782E+00  1.00472332584E+01  4.14361070915E+01  3.00000000000E-03  0.0000E+00  9.0
        1    1    4    4  500    0 -1.87228390626E+01  2.26432081442E+01 -3.08670717208E+01  4.26149706001E+01  5.00000000000E-03  0.0000E+00  9.0
  3000022    1    4    4    0    0  3.11715876148E+01  9.28145423154E+01 -8.28937620262E+01  1.41624796284E+02  6.00000000000E+01  0.0000E+00  9.0
</event>
<event>
10    1   3.4312288E-02   4.9290000E+02  -1.0000000E+00   9.3650000E-02
       11   -1    0    0    0    0  0.00000000000E+00  0.00000000000E+00  2.49812982210E+02  2.49812982210E+02  0.00000000000E+00  0.0000E+00  9.0
      -11   -1    0    0    0    0  0.00000000000E+00  0.00000000000E+00 -2.43178633360E+02  2.43178633360E+02  0.00000000000E+00  0.0000E+00  9.0
  3000025    2    1    2    0    0 -1.85137210368E+02  2.19977560403E+01 -1.76428863119E+01  2.46215309745E+02  1.59846862283E+02  1.8132E-12  9.0
 -3000025    2    1    2    0    0  1.85137210368E+02 -2.19977560403E+01  2.42772351669E+01  2.46776305829E+02  1.59842025254E+02  5.0594E-12  9.0
        2    1    3    3  500    0 -2.89697610835E+01 -1.53330537258E+01  1.31464145724E+01  3.53154048385E+01  3.00000000000E-03  0.0000E+00  9.0
       -1    1    3    3    0  500 -6.70420787627E+01  6.94074252530E+01 -1.55219055372E+01  9.77392479078E+01  5.00000000000E-03  0.0000E+00  9.0
  3000022    1    3    3    0    0 -8.91253705220E+01 -3.20766154869E+01 -1.52673953476E+01  1.13160656999E+02  6.00000000000E+01  0.0000E+00  9.0
       -4    1    4    4    0  504  6.69748920668E+01  2.21141869174E+01  1.66810236348E+01  7.24919685751E+01  1.46817165330E+00  0.0000E+00  9.0
        3    1    4    4  504    0  5.08714667705E+01 -1.74217875685E+01 -4.17694319931E+01  6.80892815536E+01  2.00000000000E-01  0.0000E+00  9.0
  3000022    1    4    4    0    0  6.72908515305E+01 -2.66901553881E+01  4.93656435252E+01  1.06195055699E+02  6.00000000000E+01  0.0000E+00  9.0
</event>
<event>
10    1   3.4312288E-02   3.9330000E+02  -1.0000000E+00   9.6220000E-02
       11   -1    0    0    0    0  0.00000000000E+00  0.00000000000E+00  1.60826343320E+02  1.60826343320E+02  0.00000000000E+00  0.0000E+00  9.0
      -11   -1    0    0    0    0  0.00000000000E+00  0.00000000000E+00 -2.40481963220E+02  2.40481963220E+02  0.00000000000E+00  0.0000E+00  9.0
  3000025    2    1    2    0    0  6.17456355186E+01  5.61308935589E+01  4.00269575102E+01  1.84848431104E+02  1.60011200973E+02  5.0462E-13  9.0
 -3000025    2    1    2    0    0 -6.17456355186E+01 -5.61308935589E+01 -1.19682577409E+02  2.16459875436E+02  1.59899210821E+02  5.1545E-12  9.0
        2    1    3    3  500    0 -1.07492112868E+01  7.70742772642E+00  4.02005250639E+01  4.23205884867E+01  3.00000000000E-03  0.0000E+00  9.0
       -1    1    3    3    0  500  3.87146601190E+01 -8.89437176545E+00 -2.81324611143E+01  4.86761764170E+01  5.00000000000E-03  0.0000E+00  9.0
  3000022    1    3    3    0    0  3.37801866864E+01  5.73178375980E+01  2.79588935607E+01  9.38516662005E+01  6.00000000000E+01  0.0000E+00  9.0
       -2    1    4    4    0  504 -4.35415389732E+01 -4.57445276362E+01 -5.28532280315E+01  8.23522382645E+01  3.00000000000E-03  0.0000E+00  9.0
        1    1    4    4  504    0 -1.03288896528E+01  1.08468635441E+01  2.07295889248E+01  2.55745242809E+01  5.00000000000E-03  0.0000E+00  9.0
  3000022    1    4    4    0    0 -7.87520689263E+00 -2.12332294665E+01 -8.75589383012E+01  1.08533112890E+02  6.00000000000E+01  0.0000E+00  9.0
</event>
<event>
10    1   3.4312288E-02   4.9940000E+02  -1.0000000E+00   9.3500000E-02
       11   -1    0    0    0    0  0.00000000000E+00  0.00000000000E+00  2.50000000000E+02  2.50000000000E+02  0.00000000000E+00  0.0000E+00  9.0
      -11   -1    0    0    0    0  0.00000000000E+00  0.00000000000E+00 -2.49375719570E+02  2.49375719570E+02  0.00000000000E+00  0.0000E+00  9.0
  3000025    2    1    2    0    0  9.88099087521E+01 -1.03608570619E+02 -1.27401864015E+02  2.49574136887E+02  1.59868323552E+02  4.7765E-13  9.0
 -3000025    2    1    2    0    0 -9.88099087521E+01  1.03608570619E+02  1.28026144455E+02  2.49801582674E+02  1.59724772873E+02  1.2725E-12  9.0
       14    1    3    3    0    0 -2.45445926085E+01 -2.71380670192E+01 -1.20070556530E+01  3.85107919071E+01  0.00000000000E+00  0.0000E+00  9.0
      -13    1    3    3    0    0  6.59095149128E+01 -6.26805827156E+01 -4.58713494639E+01  1.01868108256E+02  1.05700000000E-01  0.0000E+00  9.0
  3000022    1    3    3    0    0  5.74449864479E+01 -1.37899208844E+01 -6.95234588989E+01  1.09195236724E+02  6.00000000000E+01  0.0000E+00  9.0
       -2    1    4    4    0  500 -6.01905839089E+01  7.51445215547E+01  1.87350230740E+01  9.80846910051E+01  3.00000000000E-03  0.0000E+00  9.0
        1    1    4    4  500    0 -2.40350789539E+01  2.34029699673E+01  7.19329614496E+01  7.93708699179E+01  5.00000000000E-03  0.0000E+00  9.0
  3000022    1    4    4    0    0 -1.45842458895E+01  5.06107909729E+00  3.73581599315E+01  7.23460217515E+01  6.00000000000E+01  0.0000E+00  9.0
</event>
<event>
10    1   3.4312288E-02   4.9940000E+02  -1.0000000E+00   9.3500000E-02
       11   -1    0    0    0    0  0.00000000000E+00  0.00000000000E+00  2.50000000000E+02  2.50000000000E+02  0.00000000000E+00  0.0000E+00  9.0
      -11   -1    0    0    0    0  0.00000000000E+00  0.00000000000E+00 -2.49436440460E+02  2.49436440460E+02  0.00000000000E+00  0.0000E+00  9.0
  3000025    2    1    2    0    0 -3.23204485605E+00 -1.91352345487E+02  9.70003026938E+00  2.49738378536E+02  1.60153054573E+02  3.2032E-13  9.0
 -3000025    2    1    2    0    0  3.23204485605E+00  1.91352345487E+02 -9.13647073458E+00  2.49698061927E+02  1.60123329953E+02  1.9590E-12  9.0
       14    1    3    3    0    0 -4.43234769542E+01 -2.92768152387E+01 -4.07038276228E+00  5.32754214968E+01  0.00000000000E+00  0.0000E+00  9.0
      -13    1    3    3    0    0  8.05304990266E+00 -3.87692311956E+01  3.61847901421E+01  5.36400513642E+01  1.05700000000E-01  0.0000E+00  9.0
  3000022    1    3    3    0    0  3.30383821950E+01 -1.23306299053E+02 -2.24143771098E+01  1.42822905675E+02  6.00000000000E+01  0.0000E+00  9.0
       -4    1    4    4    0  500 -4.00412260872E+01  1.40802907601E+02  8.67248618827E+00  1.46649671394E+02  1.46817165330E+00  0.0000E+00  9.0
        3    1    4    4  500    0  2.28409612718E+01  1.55503517771E+01  2.78345792073E+00  2.77724790072E+01  2.00000000000E-01  0.0000E+00  9.0
  3000022    1    4    4    0    0  2.04323096705E+01  3.49990861092E+01 -2.05924148430E+01  7.52759115256E+01  6.00000000000E+01  0.0000E+00  9.0
</event>
<event>
10    1   3.4312288E-02   4.9990000E+02  -1.0000000E+00   9.3490000E-02
       11   -1    0    0    0    0  0.00000000000E+00  0.00000000000E+00  2.49940466360E+02  2.49940466360E+02  0.00000000000E+00  0.0000E+00  9.0
      -11   -1    0    0    0    0  0.00000000000E+00  0.00000000000E+00 -2.50000000000E+02  2.50000000000E+02  0.00000000000E+00  0.0000E+00  9.0
  3000025    2    1    2    0    0  1.69585448792E+02 -8.89520343846E+01  1.44452365863E+01  2.49976544918E+02  1.60024745854E+02  9.0293E-13  9.0
 -3000025    2    1    2    0    0 -1.69585448792E+02  8.89520343846E+01 -1.45047702283E+01  2.49963921441E+02  1.59999639998E+02  3.3478E-13  9.0
        2    1    3    3  500    0  6.55799482560E+01 -6.50991917971E+01  6.05695562466E+01  1.10486675843E+02  3.00000000000E-03  0.0000E+00  9.0
       -1    1    3    3    0  500  3.86780126685E+01  3.44871813462E+00 -1.41795206589E+01  4.13393414543E+01  5.00000000000E-03  0.0000E+00  9.0
  3000022    1    3    3    0    0  6.53274878684E+01 -2.73015607218E+01 -3.19447990014E+01  9.81505276210E+01  6.00000000000E+01  0.0000E+00  9.0
       -2    1    4    4    0  504 -3.30816123587E+01  2.44578631852E+01  4.48376533325E+01  6.08522416449E+01  3.00000000000E-03  0.0000E+00  9.0
        1    1    4    4  504    0 -4.88389607044E+01  5.35248163845E+01 -2.94182575941E+01  7.82021991798E+01  5.00000000000E-03  0.0000E+00  9.0
  3000022    1    4    4    0    0 -8.76648757296E+01  1.09693548146E+01 -2.99241659668E+01  1.10909480616E+02  6.00000000000E+01  0.0000E+00  9.0
</event>
<event>
10    1   3.4312288E-02   4.3050000E+02  -1.0000000E+00   9.5180000E-02
       11   -1    0    0    0    0  0.00000000000E+00  0.00000000000E+00  2.21861823000E+02  2.21861823000E+02  0.00000000000E+00  0.0000E+00  9.0
      -11   -1    0    0    0    0  0.00000000000E+00  0.00000000000E+00 -2.08856328830E+02  2.08856328830E+02  0.00000000000E+00  0.0000E+00  9.0
  3000025    2    1    2    0    0  1.36656316669E+02  4.53300954629E+01  8.27679464558E+00  2.15461914961E+02  1.60079870779E+02  2.1396E-12  9.0
 -3000025    2    1    2    0    0 -1.36656316669E+02 -4.53300954629E+01  4.72869952532E+00  2.15256236860E+02  1.59947242764E+02  1.6629E-12  9.0
        4    1    3    3  500    0  7.14283244417E+01  3.21479977666E+01 -2.54639743810E+00  7.83845581787E+01  1.46817165330E+00  0.0000E+00  9.0
       -3    1    3    3    0  500  1.31477566646E+01 -1.15287227764E+01  4.41188644635E+01  4.74582885882E+01  2.00000000000E-01  0.0000E+00  9.0
  3000022    1    3    3    0    0  5.20802355627E+01  2.47108204731E+01 -3.32956723796E+01  8.96190681938E+01  6.00000000000E+01  0.0000E+00  9.0
       -2    1    4    4    0  504 -7.87896261679E+01 -2.54743974465E+01 -2.05609712089E+01  8.53200074015E+01  3.00000000000E-03  0.0000E+00  9.0
        1    1    4    4  504    0 -1.26739293216E+01 -3.77430037962E+01  3.38343513696E+01  5.22486954632E+01  5.00000000000E-03  0.0000E+00  9.0
  3000022    1    4    4    0    0 -4.51927611799E+01  1.78873057798E+01 -8.54468063532E+00  7.76875339954E+01  6.00000000000E+01  0.0000E+00  9.0
</event>
<event>
10    1   3.4312288E-02   4.6070000E+02  -1.0000000E+00   9.4410000E-02
       11   -1    0    0    0    0  0.00000000000E+00  0.00000000000E+00  2.25397404400E+02  2.25397404400E+02  0.00000000000E+00  0.0000E+00  9.0
      -11   -1    0    0    0    0  0.00000000000E+00  0.00000000000E+00 -2.35372928350E+02  2.35372928350E+02  0.00000000000E+00  0.0000E+00  9.0
  3000025    2    1    2    0    0  6.13857872736E+01 -1.36139243236E+02  6.63952304225E+01  2.28823892892E+02  1.60155983052E+02  1.2227E-13  9.0
 -3000025    2    1    2    0    0 -6.13857872736E+01  1.36139243236E+02 -7.63707543745E+01  2.31946439858E+02  1.60201593035E+02  8.0792E-13  9.0
        4    1    3    3  500    0  3.42494421408E+01 -1.31039459088E+01 -3.52738666060E+00  3.68691696407E+01  1.46817165330E+00  0.0000E+00  9.0
       -3    1    3    3    0  500  8.87446533399E+00 -9.03317282133E+01  7.93953438146E+01  1.20591201488E+02  2.00000000000E-01  0.0000E+00  9.0
  3000022    1    3    3    0    0  1.82618797986E+01 -3.27035691133E+01 -9.47272673255E+00  7.13635217620E+01  6.00000000000E+01  0.0000E+00  9.0
       -2    1    4    4    0  504  1.82933150226E+01  4.35487874042E+01 -1.88713359662E+01  5.08652100069E+01  3.00000000000E-03  0.0000E+00  9.0
        1    1    4    4  504    0 -5.66403274136E+01  4.05358292270E+01  1.48254878197E+01  7.12114826045E+01  5.00000000000E-03  0.0000E+00  9.0
  3000022    1    4    4    0    0 -2.30387748833E+01  5.20546266050E+01 -7.23249062289E+01  1.09869747247E+02  6.00000000000E+01  0.0000E+00  9.0
</event>
<event>
10    1   3.4312288E-02   4.7380000E+02  -1.0000000E+00   9.4090000E-02
       11   -1    0    0    0    0  0.00000000000E+00  0.00000000000E+00  2.49733243450E+02  2.49733243450E+02  0.00000000000E+00  0.0000E+00  9.0
      -11   -1    0    0    0    0  0.00000000000E+00  0.00000000000E+00 -2.24765090400E+02  2.24765090400E+02  0.00000000000E+00  0.0000E+00  9.0
  3000025    2    1    2    0    0  7.02388049867E+01  5.67909147379E+01 -1.37208886740E+02  2.29383177383E+02  1.60098924867E+02  6.8057E-13  9.0
 -3000025    2    1    2    0    0 -7.02388049867E+01 -5.67909147379E+01  1.62177039780E+02  2.45115156469E+02  1.60066704772E+02  6.1924E-12  9.0
        2    1    3    3  500    0  1.72490549124E+01 -5.13085730781E+00 -6.51142709207E+01  6.75553393790E+01  3.00000000000E-03  0.0000E+00  9.0
       -1    1    3    3    0  500  4.49757804066E+01  8.87518847922E+00  9.93363813053E+00  4.69070035840E+01  5.00000000000E-03  0.0000E+00  9.0
  3000022    1    3    3    0    0  8.01396966815E+00  5.30465835662E+01 -8.20282539496E+01  1.14920834420E+02  6.00000000000E+01  0.0000E+00  9.0
      -14    1    4    4    0    0 -2.76128354743E+01 -2.85451308666E+01 -1.05470549586E+01  4.10917698259E+01  0.00000000000E+00  0.0000E+00  9.0
       13    1    4    4    0    0 -3.13832256807E+01 -3.40483133247E+01  8.79717097387E+01  9.94144224005E+01  1.05700000000E-01  0.0000E+00  9.0
  3000022    1    4    4    0    0 -1.12427438320E+01  5.80252945225E+00  8.47523850011E+01  1.04608964244E+02  6.00000000000E+01  0.0000E+00  9.0
</event>
<event>
10    1   3.4312288E-02   4.9050000E+02  -1.0000000E+00   9.3700000E-02
       11   -1    0    0    0    0  0.00000000000E+00  0.00000000000E+00  2.40579580990E+02  2.40579580990E+02  0.00000000000E+00  0.0000E+00  9.0
      -11   -1    0    0    0    0  0.00000000000E+00  0.00000000000E+00 -2.49999785920E+02  2.49999785920E+02  0.00000000000E+00  0.0000E+00  9.0
  3000025    2    1    2    0    0  1.22777090674E+02  1.39715822780E+02 -2.54547705413E+00  2.45203765993E+02  1.59761329095E+02  1.4264E-13  9.0
 -3000025    2    1    2    0    0 -1.22777090674E+02 -1.39715822780E+02 -6.87472787127E+00  2.45375600922E+02  1.59897462504E+02  1.2566E-12  9.0
        2    1    3    3  500    0  4.99942812217E+01  2.68111311720E+01 -4.03850053356E+01  6.96362949514E+01  3.00000000000E-03  0.0000E+00  9.0
       -1    1    3    3    0  500 -1.40656940351E+01  1.62773857182E+01  2.33182941839E+01  3.17260130360E+01  5.00000000000E-03  0.0000E+00  9.0
  3000022    1    3    3    0    0  8.68485034875E+01  9.66273058901E+01  1.45212340975E+01  1.43841458006E+02  6.00000000000E+01  0.0000E+00  9.0
       -4    1    4    4    0  504 -4.31717779391E+01  1.23851615545E+01  1.07564196559E+01  4.62066091481E+01  1.46817165330E+00  0.0000E+00  9.0
        3    1    4    4  504    0  9.30469270007E+00 -4.74247159535E+01 -7.99251688280E+00  4.89857256314E+01  2.00000000000E-01  0.0000E+00  9.0
  3000022    1    4    4    0    0 -8.89100054348E+01 -1.04676268380E+02 -9.63863064385E+00  1.50183266142E+02  6.00000000000E+01  0.0000E+00  9.0
</event>
<event>
10    1   3.4312288E-02   5.0000000E+02  -1.0000000E+00   9.3490000E-02
       11   -1    0    0    0    0  0.00000000000E+00  0.00000000000E+00  2.49993910230E+02  2.49993910230E+02  0.00000000000E+00  0.0000E+00  9.0
      -11   -1    0    0    0    0  0.00000000000E+00  0.00000000000E+00 -2.50000000000E+02  2.50000000000E+02  0.00000000000E+00  0.0000E+00  9.0
  3000025    2    1    2    0    0  3.88320861166E+01  1.74950427698E+02 -6.90293985449E+01  2.50028633448E+02  1.60105204839E+02  5.0475E-13  9.0
 -3000025    2    1    2    0    0 -3.88320861166E+01 -1.74950427698E+02  6.90233087829E+01  2.49965276779E+02  1.60008872803E+02  5.8650E-12  9.0
        4    1    3    3  500    0 -3.93885000113E+01  6.19754062778E+01 -1.14610561473E+01  7.43365068621E+01  1.46817165330E+00  0.0000E+00  9.0
       -3    1    3    3    0  500  2.47610697975E+01 -2.91980194513E+00 -7.47967802484E+00  2.60311621767E+01  2.00000000000E-01  0.0000E+00  9.0
  3000022    1    3    3    0    0  5.34595163305E+01  1.15894823367E+02 -5.00886643729E+01  1.49660964410E+02  6.00000000000E+01  0.0000E+00  9.0
       -4    1    4    4    0  504  2.54896220332E+01 -3.22506792027E+01 -2.68644492000E+00  4.12213495017E+01  1.46817165330E+00  0.0000E+00  9.0
        3    1    4    4  504    0 -3.28215704573E+01 -6.93101530238E+01  7.70496607344E+01  1.08709903039E+02  2.00000000000E-01  0.0000E+00  9.0
  3000022    1    4    4    0    0 -3.15001376925E+01 -7.33895954717E+01 -5.33990703150E+00  1.00034024238E+02  6.00000000000E+01  0.0000E+00  9.0
</event>
<event>
10    1   3.4312288E-02   4.6470000E+02  -1.0000000E+00   9.4310000E-02
       11   -1    0    0    0    0  0.00000000000E+00  0.00000000000E+00  2.49999999980E+02  2.49999999980E+02  0.00000000000E+00  0.0000E+00  9.0
      -11   -1    0    0    0    0  0.00000000000E+00  0.00000000000E+00 -2.15909950870E+02  2.15909950870E+02  0.00000000000E+00  0.0000E+00  9.0
  3000025    2    1    2    0    0 -1.17262022762E+02  1.16368617614E+02 -1.51466670608E+01  2.30486465403E+02  1.60007974999E+02  3.5796E-12  9.0
 -3000025    2    1    2    0    0  1.17262022762E+02 -1.16368617614E+02  4.92367161708E+01  2.35423485452E+02  1.60336914449E+02  2.4626E-12  9.0
       14    1    3    3    0    0  2.01722470998E+01  1.02172620641E+01  5.76318854374E+00  2.33350881578E+01  0.00000000000E+00  0.0000E+00  9.0
      -13    1    3    3    0    0 -6.08407728852E+01  8.58862116841E+01 -2.30386033244E+01  1.07744277891E+02  1.05700000000E-01  0.0000E+00  9.0
  3000022    1    3    3    0    0 -7.65934969771E+01  2.02651438660E+01  2.12874772033E+00  9.94070993539E+01  6.00000000000E+01  0.0000E+00  9.0
       -4    1    4    4    0  500  3.09183798937E+01  1.98040912257E+01  1.61687153699E+01  4.01463713085E+01  1.46817165330E+00  0.0000E+00  9.0
        3    1    4    4  500    0  5.94944145877E+00 -2.93923449245E+01  3.83357525464E+01  4.86721246416E+01  2.00000000000E-01  0.0000E+00  9.0
  3000022    1    4    4    0    0  8.03942014109E+01 -1.06780363915E+02 -5.26775174566E+00  1.46604989502E+02  6.00000000000E+01  0.0000E+00  9.0
</event>
<event>
10    1   3.4312288E-02   3.5210000E+02  -1.0000000E+00   9.7540000E-02
       11   -1    0    0    0    0  0.00000000000E+00  0.00000000000E+00  1.26743532500E+02  1.26743532500E+02  0.00000000000E+00  0.0000E+00  9.0
      -11   -1    0    0    0    0  0.00000000000E+00  0.00000000000E+00 -2.44587428840E+02  2.44587428840E+02  0.00000000000E+00  0.0000E+00  9.0
  3000025    2    1    2    0    0 -6.83075954248E+01  1.05349510524E+01 -8.58050735606E+01  1.94239314639E+02  1.59967146366E+02  2.3394E-13  9.0
 -3000025    2    1    2    0    0  6.83075954248E+01 -1.05349510524E+01 -3.20388227754E+01  1.77091646701E+02  1.59868859944E+02  1.5136E-12  9.0
        4    1    3    3  500    0  1.96460536939E+01 -3.07155624394E+00  1.83328815955E+00  2.00229457618E+01  1.46817165330E+00  0.0000E+00  9.0
       -3    1    3    3    0  500 -7.68268207454E+01 -2.10327968889E+01 -3.79265205744E+01  8.82224455209E+01  2.00000000000E-01  0.0000E+00  9.0
  3000022    1    3    3    0    0 -1.11268283722E+01  3.46393041852E+01 -4.97118411452E+01  8.59939233557E+01  6.00000000000E+01  0.0000E+00  9.0
       -2    1    4    4    0  504  6.52133424645E+00 -2.32794491609E+01 -2.74571723625E+01  3.65835601976E+01  3.00000000000E-03  0.0000E+00  9.0
        1    1    4    4  504    0  4.66902562536E+01  4.98366068631E+01 -2.85224467545E+00  6.83505869568E+01  5.00000000000E-03  0.0000E+00  9.0
  3000022    1    4    4    0    0  1.50960049247E+01 -3.70921087546E+01 -1.72940573817E+00  7.21574995462E+01  6.00000000000E+01  0.0000E+00  9.0
</event>
<event>
10    1   3.4312288E-02   4.9750000E+02  -1.0000000E+00   9.3550000E-02
       11   -1    0    0    0    0  0.00000000000E+00  0.00000000000E+00  2.50000000000E+02  2.50000000000E+02  0.00000000000E+00  0.0000E+00  9.0
      -11   -1    0    0    0    0  0.00000000000E+00  0.00000000000E+00 -2.47498336720E+02  2.47498336720E+02  0.00000000000E+00  0.0000E+00  9.0
  3000025    2    1    2    0    0  1.82993099059E+02  4.70834803971E+01  2.62472222556E+01  2.48976794960E+02  1.59991247644E+02  1.2456E-12  9.0
 -3000025    2    1    2    0    0 -1.82993099059E+02 -4.70834803971E+01 -2.37455589716E+01  2.48521541752E+02  1.59673970059E+02  2.1811E-15  9.0
        4    1    3    3  500    0  5.52416610930E+01 -2.61160051612E+01 -2.25843437857E+00  6.11632479496E+01  1.46817165330E+00  0.0000E+00  9.0
       -3    1    3    3    0  500  1.00486386267E+02  5.71066228827E+01  3.18576249378E+01  1.19890068265E+02  2.00000000000E-01  0.0000E+00  9.0
  3000022    1    3    3    0    0  2.72650516987E+01  1.60928626765E+01 -3.35196830399E+00  6.79234787446E+01  6.00000000000E+01  0.0000E+00  9.0
       -2    1    4    4    0  504  8.96047321686E+00 -9.03490349125E-01  5.76750041958E+00  1.06944118665E+01  3.00000000000E-03  0.0000E+00  9.0
        1    1    4    4  504    0 -1.60677349051E+02 -2.31615658836E+01 -5.50330587585E+00  1.62431385615E+02  5.00000000000E-03  0.0000E+00  9.0
  3000022    1    4    4    0    0 -3.12762232244E+01 -2.30184241644E+01 -2.40097535149E+01  7.53957442701E+01  6.00000000000E+01  0.0000E+00  9.0
</event>
<event>
10    1   3.4312288E-02   4.8540000E+02  -1.0000000E+00   9.3820000E-02
       11   -1    0    0    0    0  0.00000000000E+00  0.00000000000E+00  2.45288060710E+02  2.45288060710E+02  0.00000000000E+00  0.0000E+00  9.0
      -11   -1    0    0    0    0  0.00000000000E+00  0.00000000000E+00 -2.40111592510E+02  2.40111592510E+02  0.00000000000E+00  0.0000E+00  9.0
  3000025    2    1    2    0    0  1.28486485335E+02 -2.21651452929E+01  1.30234622198E+02  2.44052434364E+02  1.60001447869E+02  9.8261E-13  9.0
 -3000025    2    1    2    0    0 -1.28486485335E+02  2.21651452929E+01 -1.25058153998E+02  2.41347218858E+02  1.60027708818E+02  2.6440E-13  9.0
        2    1    3    3  500    0  4.99618563701E+01  7.47165350244E+00  2.58102883588E+01  5.67290374691E+01  3.00000000000E-03  0.0000E+00  9.0
       -1    1    3    3    0  500 -1.59153986142E+01 -1.86346117502E+01  6.28440250309E+01  6.74530961128E+01  5.00000000000E-03  0.0000E+00  9.0
  3000022    1    3    3    0    0  9.44400275794E+01 -1.10021870452E+01  4.15803088085E+01  1.19870300782E+02  6.00000000000E+01  0.0000E+00  9.0
       -2    1    4    4    0  504  1.40313498845E+01 -1.93691026725E+01 -2.05595672291E+01  3.15394472299E+01  3.00000000000E-03  0.0000E+00  9.0
        1    1    4    4  504    0 -4.70062053873E+01  4.99502531164E+01 -4.46447829042E+01  8.18398912320E+01  5.00000000000E-03  0.0000E+00  9.0
  3000022    1    4    4    0    0 -9.55116298328E+01 -8.41600515094E+00 -5.98538038649E+01  1.27967880396E+02  6.00000000000E+01  0.0000E+00  9.0
</event>
<event>
10    1   3.4312288E-02   4.8720000E+02  -1.0000000E+00   9.3780000E-02
       11   -1    0    0    0    0  0.00000000000E+00  0.00000000000E+00  2.49853588440E+02  2.49853588440E+02  0.00000000000E+00  0.0000E+00  9.0
      -11   -1    0    0    0    0  0.00000000000E+00  0.00000000000E+00 -2.37526220840E+02  2.37526220840E+02  0.00000000000E+00  0.0000E+00  9.0
  3000025    2    1    2    0    0 -1.65752124249E+02 -6.37016819500E+00  8.58234917435E+01  2.45768067450E+02  1.59755830903E+02  2.8836E-12  9.0
 -3000025    2    1    2    0    0  1.65752124249E+02  6.37016819500E+00 -7.34961241445E+01  2.41611741830E+02  1.59562551340E+02  7.8578E-14  9.0
        2    1    3    3  500    0 -7.09654548421E+01 -2.62872193357E+01  8.05252438289E+00  7.61049068017E+01  3.00000000000E-03  0.0000E+00  9.0
       -1    1    3    3    0  500 -6.81700195201E+01  3.70618277247E+01  6.36699332634E+01  1.00372262416E+02  5.00000000000E-03  0.0000E+00  9.0
  3000022    1    3    3    0    0 -2.66166498864E+01 -1.71447765850E+01  1.41010340982E+01  6.92908982332E+01  6.00000000000E+01  0.0000E+00  9.0
       -2    1    4    4    0  504  1.81552458152E+01 -2.61097450776E+01 -1.66108659592E+01  3.58783028521E+01  3.00000000000E-03  0.0000E+00  9.0
        1    1    4    4  504    0  9.36944902748E+01  4.52855259190E+01  3.56862212827E+00  1.04125748278E+02  5.00000000000E-03  0.0000E+00  9.0
  3000022    1    4    4    0    0  5.39023881589E+01 -1.28056126464E+01 -6.04538803130E+01  1.01607690700E+02  6.00000000000E+01  0.0000E+00  9.0
</event>
<event>
10    1   3.4312288E-02   3.9590000E+02  -1.0000000E+00   9.6150000E-02
       11   -1    0    0    0    0  0.00000000000E+00  0.00000000000E+00  1.80697537230E+02  1.80697537230E+02  0.00000000000E+00  0.0000E+00  9.0
      -11   -1    0    0    0    0  0.00000000000E+00  0.00000000000E+00 -2.16838575050E+02  2.16838575050E+02  0.00000000000E+00  0.0000E+00  9.0
  3000025    2    1    2    0    0  8.64471237454E+01  2.96232226136E+01  5.43419627953E+01  1.92109315995E+02  1.60007186869E+02  3.0041E-12  9.0
 -3000025    2    1    2    0    0 -8.64471237454E+01 -2.96232226136E+01 -9.04830006113E+01  2.05426796284E+02  1.60194739958E+02  3.3861E-12  9.0
        2    1    3    3  500    0 -6.91787709857E+00 -7.77701960583E+00 -2.12169124300E+01  2.36325292671E+01  3.00000000000E-03  0.0000E+00  9.0
       -1    1    3    3    0  500  3.02197915661E+01  5.31765923589E+01  3.99853323108E+01  7.30740213907E+01  5.00000000000E-03  0.0000E+00  9.0
  3000022    1    3    3    0    0  6.31452092784E+01 -1.57763501394E+01  3.55735429150E+01  9.54027653376E+01  6.00000000000E+01  0.0000E+00  9.0
       -2    1    4    4    0  504 -7.11720658437E+01 -2.78239567594E+01 -3.93891430898E+01  8.59717402904E+01  3.00000000000E-03  0.0000E+00  9.0
        1    1    4    4  504    0  1.95977327611E+01 -2.05928004417E+01 -3.62046736325E+01  4.60316519065E+01  5.00000000000E-03  0.0000E+00  9.0
  3000022    1    4    4    0    0 -3.48727906636E+01  1.87935345875E+01 -1.48891838886E+01  7.34234040877E+01  6.00000000000E+01  0.0000E+00  9.0
</event>
<event>
10    1   3.4312288E-02   4.9210000E+02  -1.0000000E+00   9.3670000E-02
       11   -1    0    0    0    0  0.00000000000E+00  0.00000000000E+00  2.50000000000E+02  2.50000000000E+02  0.00000000000E+00  0.0000E+00  9.0
      -11   -1    0    0    0    0  0.00000000000E+00  0.00000000000E+00 -2.42121782010E+02  2.42121782010E+02  0.00000000000E+00  0.0000E+00  9.0
  3000025    2    1    2    0    0 -1.06001800268E+02 -1.43368845367E+02  5.99882807508E+01  2.47098999268E+02  1.60213339426E+02  7.7619E-13  9.0
 -3000025    2    1    2    0    0  1.06001800268E+02  1.43368845367E+02 -5.21100627598E+01  2.45022782747E+02  1.59780155032E+02  1.9055E-12  9.0
        2    1    3    3  500    0 -7.39098418243E+01 -5.30521746918E+01  4.81198840233E+01  1.02920946388E+02  3.00000000000E-03  0.0000E+00  9.0
       -1    1    3    3    0  500 -1.15530293064E+01  3.45996160741E+00 -2.27899350319E+01  2.57842002831E+01  5.00000000000E-03  0.0000E+00  9.0
  3000022    1    3    3    0    0 -2.05389291370E+01 -9.37766322828E+01  3.46583317594E+01  1.18393852597E+02  6.00000000000E+01  0.0000E+00  9.0
       -4    1    4    4    0  504 -2.32951009176E+01  1.50901660057E+01 -1.58072669517E+01  3.19749910606E+01  1.46817165330E+00  0.0000E+00  9.0
        3    1    4    4  504    0  6.51700250818E+01  3.22969159186E+01 -3.97885575403E+01  8.29059241439E+01  2.00000000000E-01  0.0000E+00  9.0
  3000022    1    4    4    0    0  6.41268761037E+01  9.59817634429E+01  3.48576173283E+00  1.30141867542E+02  6.00000000000E+01  0.0000E+00  9.0
</event>
<event>
10    1   3.4312288E-02   4.9560000E+02  -1.0000000E+00   9.3590000E-02
       11   -1    0    0    0    0  0.00000000000E+00  0.00000000000E+00  2.45668681640E+02  2.45668681640E+02  0.00000000000E+00  0.0000E+00  9.0
      -11   -1    0    0    0    0  0.00000000000E+00  0.00000000000E+00 -2.49925482540E+02  2.49925482540E+02  0.00000000000E+00  0.0000E+00  9.0
  3000025    2    1    2    0    0 -1.17022534570E+02 -9.35424304610E+01 -1.17813503476E+02  2.48706591563E+02  1.59782624812E+02  4.0739E-13  9.0
 -3000025    2    1    2    0    0  1.17022534570E+02  9.35424304610E+01  1.13556702576E+02  2.46887572614E+02  1.60043396982E+02  2.0589E-12  9.0
       14    1    3    3    0    0 -6.92234128490E+01 -1.49023496260E+01 -8.33999592014E+01  1.09405274579E+02  0.00000000000E+00  0.0000E+00  9.0
      -13    1    3    3    0    0  7.56203395446E+00 -4.25852689372E+01 -2.39618270296E+01  4.94456248324E+01  1.05700000000E-01  0.0000E+00  9.0
  3000022    1    3    3    0    0 -5.53611556752E+01 -3.60548118973E+01 -1.04517172447E+01  8.98556921514E+01  6.00000000000E+01  0.0000E+00  9.0
       -4    1    4    4    0  500  6.93698109530E+01  2.76129631927E+01  4.54681432149E+01  8.74308525828E+01  1.46817165330E+00  0.0000E+00  9.0
        3    1    4    4  500    0 -4.79169885984E+00  5.05462193228E+01  5.89220469716E+01  7.77799992614E+01  2.00000000000E-01  0.0000E+00  9.0
  3000022    1    4    4    0    0  5.24444224770E+01  1.53832479458E+01  9.16651238961E+00  8.16767207697E+01  6.00000000000E+01  0.0000E+00  9.0
</event>
<event>
10    1   3.4312288E-02   5.0000000E+02  -1.0000000E+00   9.3490000E-02
       11   -1    0    0    0    0  0.00000000000E+00  0.00000000000E+00  2.49959756080E+02  2.49959756080E+02  0.00000000000E+00  0.0000E+00  9.0
      -11   -1    0    0    0    0  0.00000000000E+00  0.00000000000E+00 -2.50000000000E+02  2.50000000000E+02  0.00000000000E+00  0.0000E+00  9.0
  3000025    2    1    2    0    0 -1.40640701457E+02  8.67836822619E+01  9.77678988610E+01  2.49932361600E+02  1.59988777462E+02  1.0187E-12  9.0
 -3000025    2    1    2    0    0  1.40640701457E+02 -8.67836822619E+01 -9.78081427810E+01  2.50027394485E+02  1.60112619069E+02  1.8461E-12  9.0
        2    1    3    3  500    0  2.13298937252E+01  4.05212474661E+00  9.35174757239E+00  2.36397815757E+01  3.00000000000E-03  0.0000E+00  9.0
       -1    1    3    3    0  500 -6.10311297048E+01  5.92694357249E+01  1.66534945163E+01  8.66891210522E+01  5.00000000000E-03  0.0000E+00  9.0
  3000022    1    3    3    0    0 -1.00939465478E+02  2.34621217904E+01  7.17626567724E+01  1.39603458972E+02  6.00000000000E+01  0.0000E+00  9.0
       -4    1    4    4    0  504  5.81841677298E+01 -5.58774514745E+01 -1.45384633585E+00  8.06966923416E+01  1.46817165330E+00  0.0000E+00  9.0
        3    1    4    4  504    0 -1.31923313296E+01 -1.02579819797E+01 -3.59037518952E+01  3.96028180861E+01  2.00000000000E-01  0.0000E+00  9.0
  3000022    1    4    4    0    0  9.56488650571E+01 -2.06482488077E+01 -6.04505445488E+01  1.29727884057E+02  6.00000000000E+01  0.0000E+00  9.0
</event>
<event>
10    1   3.4312288E-02   4.7840000E+02  -1.0000000E+00   9.3980000E-02
       11   -1    0    0    0    0  0.00000000000E+00  0.00000000000E+00  2.49202643430E+02  2.49202643430E+02  0.00000000000E+00  0.0000E+00  9.0
      -11   -1    0    0    0    0  0.00000000000E+00  0.00000000000E+00 -2.29605128520E+02  2.29605128520E+02  0.00000000000E+00  0.0000E+00  9.0
  3000025    2    1    2    0    0 -2.19177911035E+01 -1.40120391659E+02 -9.75683156264E+01  2.35047129327E+02  1.60042066548E+02  1.3483E-12  9.0
 -3000025    2    1    2    0    0  2.19177911035E+01  1.40120391659E+02  1.17165830531E+02  2.43760642628E+02  1.59929063415E+02  2.0031E-13  9.0
        4    1    3    3  500    0 -2.41614461549E+01 -3.49849503143E+01 -6.79651001394E+01  8.01818719771E+01  1.46817165330E+00  0.0000E+00  9.0
       -3    1    3    3    0  500  2.50605857855E+01  2.86202297124E+00 -1.22376728679E+01  2.80361333393E+01  2.00000000000E-01  0.0000E+00  9.0
  3000022    1    3    3    0    0 -2.28169307331E+01 -1.07997464316E+02 -1.73655426198E+01  1.26829124010E+02  6.00000000000E+01  0.0000E+00  9.0
       -2    1    4    4    0  504  6.59220819947E+01  6.01387652030E+01  5.82306000602E+01  1.06551371493E+02  3.00000000000E-03  0.0000E+00  9.0
        1    1    4    4  504    0  1.67571292799E-01  5.40695787983E+00 -9.91942420446E+00  1.12985961606E+01  5.00000000000E-03  0.0000E+00  9.0
  3000022    1    4    4    0    0 -4.41718621838E+01  7.45746685766E+01  6.88546546766E+01  1.25910674975E+02  6.00000000000E+01  0.0000E+00  9.0
</event>
<event>
10    1   3.4312288E-02   4.8040000E+02  -1.0000000E+00   9.3940000E-02
       11   -1    0    0    0    0  0.00000000000E+00  0.00000000000E+00  2.30903186930E+02  2.30903186930E+02  0.00000000000E+00  0.0000E+00  9.0
      -11   -1    0    0    0    0  0.00000000000E+00  0.00000000000E+00 -2.49848347600E+02  2.49848347600E+02  0.00000000000E+00  0.0000E+00  9.0
  3000025    2    1    2    0    0  6.06436614558E+01 -1.56692357786E+02  5.26027013839E+01  2.37990325054E+02  1.60131826829E+02  4.7794E-13  9.0
 -3000025    2    1    2    0    0 -6.06436614558E+01  1.56692357786E+02 -7.15478620569E+01  2.42761209475E+02  1.59949240691E+02  1.0894E-13  9.0
        2    1    3    3  500    0  2.97431805934E+01 -3.57137341166E+01  2.50369623376E+01  5.27918278567E+01  3.00000000000E-03  0.0000E+00  9.0
       -1    1    3    3    0  500  1.95996584923E+01  1.34180319681E+01  2.91156697277E+01  3.75754233989E+01  5.00000000000E-03  0.0000E+00  9.0
  3000022    1    3    3    0    0  1.13008223697E+01 -1.34396655637E+02 -1.54993068136E+00  1.47623073798E+02  6.00000000000E+01  0.0000E+00  9.0
       -4    1    4    4    0  504 -6.60897190179E+01  8.22366179714E+01 -3.28483022699E+01  1.10507369823E+02  1.46817165330E+00  0.0000E+00  9.0
        3    1    4    4  504    0  5.37233189089E-01 -1.60442924905E+01  2.02401506352E+00  1.61816123424E+01  2.00000000000E-01  0.0000E+00  9.0
  3000022    1    4    4    0    0  4.90882437281E+00  9.05000323047E+01 -4.07235748510E+01  1.16072227309E+02  6.00000000000E+01  0.0000E+00  9.0
</event>
<event>
10    1   3.4312288E-02   4.9950000E+02  -1.0000000E+00   9.3500000E-02
       11   -1    0    0    0    0  0.00000000000E+00  0.00000000000E+00  2.49517665380E+02  2.49517665380E+02  0.00000000000E+00  0.0000E+00  9.0
      -11   -1    0    0    0    0  0.00000000000E+00  0.00000000000E+00 -2.49999717230E+02  2.49999717230E+02  0.00000000000E+00  0.0000E+00  9.0
  3000025    2    1    2    0    0  8.68540067101E+01 -1.64807230756E+02  4.50814317900E+01  2.49650609069E+02  1.59962649782E+02  7.7376E-13  9.0
 -3000025    2    1    2    0    0 -8.68540067101E+01  1.64807230756E+02 -4.55634836420E+01  2.49866773531E+02  1.60163453017E+02  3.2960E-13  9.0
        2    1    3    3  500    0 -2.94721244899E+00  1.32019191624E+01  2.42221263353E+00  1.37420469302E+01  3.00000000000E-03  0.0000E+00  9.0
       -1    1    3    3    0  500  1.98672814033E+01 -1.10978426735E+02 -3.91558605723E+00  1.12810690585E+02  5.00000000000E-03  0.0000E+00  9.0
  3000022    1    3    3    0    0  6.99339377557E+01 -6.70307231827E+01  4.65748052139E+01  1.23097871554E+02  6.00000000000E+01  0.0000E+00  9.0
       -4    1    4    4    0  504 -1.68729234845E+01  3.79440544660E+01 -3.08196623642E+01  5.17344559503E+01  1.46817165330E+00  0.0000E+00  9.0
        3    1    4    4  504    0 -4.81975432275E+01  1.82268563009E+01  3.54025160033E+01  6.25187939994E+01  2.00000000000E-01  0.0000E+00  9.0
  3000022    1    4    4    0    0 -2.17835399981E+01  1.08636319988E+02 -5.01463372810E+01  1.35613523581E+02  6.00000000000E+01  0.0000E+00  9.0
</event>
<event>
10    1   3.4312288E-02   5.0000000E+02  -1.0000000E+00   9.3490000E-02
       11   -1    0    0    0    0  0.00000000000E+00  0.00000000000E+00  2.49999987320E+02  2.49999987320E+02  0.00000000000E+00  0.0000E+00  9.0
      -11   -1    0    0    0    0  0.00000000000E+00  0.00000000000E+00 -2.49999999180E+02  2.49999999180E+02  0.00000000000E+00  0.0000E+00  9.0
  3000025    2    1    2    0    0 -1.00055307909E+02  1.63893692546E+02  4.88357093905E+00  2.49971981618E+02  1.59968544508E+02  6.7892E-18  9.0
 -3000025    2    1    2    0    0  1.00055307909E+02 -1.63893692546E+02 -4.88358280125E+00  2.50028004877E+02  1.60056073752E+02  4.6259E-13  9.0
        2    1    3    3  500    0  1.35171985437E+00  4.28624568307E+01 -4.06122647141E+01  5.90624534398E+01  3.00000000000E-03  0.0000E+00  9.0
       -1    1    3    3    0  500 -2.72492973149E+01  3.73582844947E+00  2.70917081291E+01  3.86062338581E+01  5.00000000000E-03  0.0000E+00  9.0
  3000022    1    3    3    0    0 -7.41577304483E+01  1.17295407266E+02  1.84041275241E+01  1.52303294321E+02  6.00000000000E+01  0.0000E+00  9.0
       -4    1    4    4    0  504  8.90044732242E+01 -9.00418926218E+01  2.25623829507E+01  1.28610090324E+02  1.46817165330E+00  0.0000E+00  9.0
        3    1    4    4  504    0  6.86373212659E+00 -3.88358817540E+01 -3.32441144706E+01  5.15804970628E+01  2.00000000000E-01  0.0000E+00  9.0
  3000022    1    4    4    0    0  4.18710255850E+00 -3.50159181702E+01  5.79814871931E+00  6.98374174903E+01  6.00000000000E+01  0.0000E+00  9.0
</event>
<event>
10    1   3.4312288E-02   4.9110000E+02  -1.0000000E+00   9.3690000E-02
       11   -1    0    0    0    0  0.00000000000E+00  0.00000000000E+00  2.41141992840E+02  2.41141992840E+02  0.00000000000E+00  0.0000E+00  9.0
      -11   -1    0    0    0    0  0.00000000000E+00  0.00000000000E+00 -2.50000000000E+02  2.50000000000E+02  0.00000000000E+00  0.0000E+00  9.0
  3000025    2    1    2    0    0  6.46453222624E+01 -1.74795158933E+02  3.68582504952E+00  2.45288290528E+02  1.59437746118E+02  2.4375E-12  9.0
 -3000025    2    1    2    0    0 -6.46453222624E+01  1.74795158933E+02 -1.25438322126E+01  2.45853702314E+02  1.59857217347E+02  1.8441E-12  9.0
        2    1    3    3  500    0 -8.45157423033E+00 -9.84194444065E+01 -2.60212067422E+01  1.02151453017E+02  3.00000000000E-03  0.0000E+00  9.0
       -1    1    3    3    0  500  7.56432274116E+00 -4.00699811345E+00  2.72004289381E+01  2.85155812115E+01  5.00000000000E-03  0.0000E+00  9.0
  3000022    1    3    3    0    0  6.55325737517E+01 -7.23687164137E+01  2.50660285333E+00  1.14621256300E+02  6.00000000000E+01  0.0000E+00  9.0
       -2    1    4    4    0  504 -5.25180949891E+01  6.28233067903E+01 -3.63513249230E+01  8.95898264872E+01  3.00000000000E-03  0.0000E+00  9.0
        1    1    4    4  504    0  1.25009632817E+01  8.17325272102E+01  8.83790500305E+00  8.31540057783E+01  5.00000000000E-03  0.0000E+00  9.0
  3000022    1    4    4    0    0 -2.46281905560E+01  3.02393249335E+01  1.49695877073E+01  7.31098700493E+01  6.00000000000E+01  0.0000E+00  9.0
</event>
<event>
10    1   3.4312288E-02   5.0000000E+02  -1.0000000E+00   9.3490000E-02
       11   -1    0    0    0    0  0.00000000000E+00  0.00000000000E+00  2.49999999530E+02  2.49999999530E+02  0.00000000000E+00  0.0000E+00  9.0
      -11   -1    0    0    0    0  0.00000000000E+00  0.00000000000E+00 -2.49966183440E+02  2.49966183440E+02  0.00000000000E+00  0.0000E+00  9.0
  3000025    2    1    2    0    0 -2.66902912548E+01  1.85343754727E+02 -4.23125269693E+01  2.49792533585E+02  1.59816397259E+02  7.4049E-13  9.0
 -3000025    2    1    2    0    0  2.66902912548E+01 -1.85343754727E+02  4.23463430623E+01  2.50173649387E+02  1.60402503139E+02  4.9951E-13  9.0
        4    1    3    3  500    0 -4.73052607088E+01  9.52054152237E+01 -3.30882674019E+01  1.11350113365E+02  1.46817165330E+00  0.0000E+00  9.0
       -3    1    3    3    0  500  1.54663952476E+01 -5.53756070838E+00 -1.88240789440E+01  2.49851937884E+01  2.00000000000E-01  0.0000E+00  9.0
  3000022    1    3    3    0    0  5.14857420645E+00  9.56759002116E+01  9.59981937661E+00  1.13457226432E+02  6.00000000000E+01  0.0000E+00  9.0
       -2    1    4    4    0  504  2.39471319185E+01 -9.31614690491E+01  1.72509448645E+01  9.77247130987E+01  3.00000000000E-03  0.0000E+00  9.0
        1    1    4    4  504    0 -1.14946413480E+01 -5.51895486328E+00  4.27668233258E+01  4.46271984880E+01  5.00000000000E-03  0.0000E+00  9.0
  3000022    1    4    4    0    0  1.42378006841E+01 -8.66633308143E+01 -1.76714251282E+01  1.07821737800E+02  6.00000000000E+01  0.0000E+00  9.0
</event>
<event>
10    1   3.4312288E-02   5.0000000E+02  -1.0000000E+00   9.3490000E-02
       11   -1    0    0    0    0  0.00000000000E+00  0.00000000000E+00  2.49997666730E+02  2.49997666730E+02  0.00000000000E+00  0.0000E+00  9.0
      -11   -1    0    0    0    0  0.00000000000E+00  0.00000000000E+00 -2.49999997000E+02  2.49999997000E+02  0.00000000000E+00  0.0000E+00  9.0
  3000025    2    1    2    0    0  1.18360870033E+01  1.84608978235E+02 -5.21194879758E+01  2.50058053818E+02  1.59975065095E+02  1.1319E-12  9.0
 -3000025    2    1    2    0    0 -1.18360870033E+01 -1.84608978235E+02  5.21171577008E+01  2.49939609908E+02  1.59790621356E+02  4.4695E-13  9.0
        4    1    3    3  500    0 -3.33302350193E+01  9.26516106869E+01 -1.65587913744E+01  9.98577720015E+01  1.46817165330E+00  0.0000E+00  9.0
       -3    1    3    3    0  500  2.54113857078E+01  3.53199578219E+01 -4.76209158905E+01  6.45060429292E+01  2.00000000000E-01  0.0000E+00  9.0
  3000022    1    3    3    0    0  1.97549363137E+01  5.66374097265E+01  1.20602192885E+01  8.56942388879E+01  6.00000000000E+01  0.0000E+00  9.0
       -4    1    4    4    0  504  7.85970070043E+00 -5.42811952749E+00  4.07435383078E+01  4.18739873734E+01  1.46817165330E+00  0.0000E+00  9.0
        3    1    4    4  504    0 -2.49017922473E+01 -2.66391521025E+01 -1.92430456801E+01  4.12320080631E+01  2.00000000000E-01  0.0000E+00  9.0
  3000022    1    4    4    0    0  5.20600454358E+00 -1.52541706605E+02  3.06166650731E+01  1.66833614471E+02  6.00000000000E+01  0.0000E+00  9.0
</event>
<event>
10    1   3.4312288E-02   4.9210000E+02  -1.0000000E+00   9.3670000E-02
       11   -1    0    0    0    0  0.00000000000E+00  0.00000000000E+00  2.49447352580E+02  2.49447352580E+02  0.00000000000E+00  0.0000E+00  9.0
      -11   -1    0    0    0    0  0.00000000000E+00  0.00000000000E+00 -2.42691529360E+02  2.42691529360E+02  0.00000000000E+00  0.0000E+00  9.0
  3000025    2    1    2    0    0 -1.40319656763E+02 -1.04434857803E+02  6.85593928709E+01  2.47257527577E+02  1.60747158588E+02  2.5509E-12  9.0
 -3000025    2    1    2    0    0  1.40319656763E+02  1.04434857803E+02 -6.18035696539E+01  2.44881354363E+02  1.59846648054E+02  6.7776E-13  9.0
        4    1    3    3  500    0  1.85193030188E+00 -2.08274371992E+01  3.77440636775E+01  4.31738538588E+01  1.46817165330E+00  0.0000E+00  9.0
       -3    1    3    3    0  500 -9.38377653872E+01 -8.16054679421E+01  1.34906242235E+01  1.25088031213E+02  2.00000000000E-01  0.0000E+00  9.0
  3000022    1    3    3    0    0 -4.83338216778E+01 -2.00195266142E+00  1.73247049698E+01  7.89956425047E+01  6.00000000000E+01  0.0000E+00  9.0
       -2    1    4    4    0  504  1.11398133932E+02  2.61185358722E+01 -2.42561418284E+01  1.16961885180E+02  3.00000000000E-03  0.0000E+00  9.0
        1    1    4    4  504    0  3.42923255121E+00  2.69414144101E+01 -3.57531647170E+01  4.48986442845E+01  5.00000000000E-03  0.0000E+00  9.0
  3000022    1    4    4    0    0  2.54922902787E+01  5.13749075207E+01 -1.79426310847E+00  8.30208248966E+01  6.00000000000E+01  0.0000E+00  9.0
</event>
<event>
10    1   3.4312288E-02   4.8050000E+02  -1.0000000E+00   9.3930000E-02
       11   -1    0    0    0    0  0.00000000000E+00  0.00000000000E+00  2.50000000000E+02  2.50000000000E+02  0.00000000000E+00  0.0000E+00  9.0
      -11   -1    0    0    0    0  0.00000000000E+00  0.00000000000E+00 -2.30865047860E+02  2.30865047860E+02  0.00000000000E+00  0.0000E+00  9.0
  3000025    2    1    2    0    0  3.78105815748E+01 -8.36457068577E+01  1.63628196776E+02  2.46541658788E+02  1.59944860445E+02  2.2991E-12  9.0
 -3000025    2    1    2    0    0 -3.78105815748E+01  8.36457068577E+01 -1.44493244636E+02  2.34323389072E+02  1.60009089010E+02  8.0380E-13  9.0
        4    1    3    3  500    0  4.45874475510E+01 -6.16306751928E+01  1.08284430446E+02  1.32340674053E+02  1.46817165330E+00  0.0000E+00  9.0
       -3    1    3    3    0  500 -2.99885717715E+01 -6.16232976012E+00  3.11164448819E+01  4.36527420336E+01  2.00000000000E-01  0.0000E+00  9.0
  3000022    1    3    3    0    0  2.32117057953E+01 -1.58527019047E+01  2.42273214484E+01  7.05482427008E+01  6.00000000000E+01  0.0000E+00  9.0
       -2    1    4    4    0  504 -2.27976231794E+01 -3.78916017438E+00 -1.64348490599E+00  2.31687377535E+01  3.00000000000E-03  0.0000E+00  9.0
        1    1    4    4  504    0  2.55003396487E+00  9.26756306218E+01 -8.78743966152E+01  1.27738736450E+02  5.00000000000E-03  0.0000E+00  9.0
  3000022    1    4    4    0    0 -1.75629923606E+01 -5.24076358968E+00 -5.49753631156E+01  8.34159148685E+01  6.00000000000E+01  0.0000E+00  9.0
</event>
<event>
10    1   3.4312288E-02   4.9200000E+02  -1.0000000E+00   9.3670000E-02
       11   -1    0    0    0    0  0.00000000000E+00  0.00000000000E+00  2.42661130600E+02  2.42661130600E+02  0.00000000000E+00  0.0000E+00  9.0
      -11   -1    0    0    0    0  0.00000000000E+00  0.00000000000E+00 -2.49378852150E+02  2.49378852150E+02  0.00000000000E+00  0.0000E+00  9.0
  3000025    2    1    2    0    0 -6.99844740957E+01 -1.71574605217E+02  2.20744398590E+01  2.45805415386E+02  1.59991717186E+02  1.3835E-13  9.0
 -3000025    2    1    2    0    0  6.99844740957E+01  1.71574605217E+02 -2.87921614160E+01  2.46234567366E+02  1.59583212893E+02  2.8463E-12  9.0
        4    1    3    3  500    0 -7.30396845311E+01 -2.41653652247E+01  1.26150652145E+01  7.79747125113E+01  1.46817165330E+00  0.0000E+00  9.0
       -3    1    3    3    0  500  6.81550480638E-01 -5.55168803185E+01 -9.80733098476E+00  5.63809564694E+01  2.00000000000E-01  0.0000E+00  9.0
  3000022    1    3    3    0    0  2.37365995458E+00 -9.18923596747E+01  1.92667056288E+01  1.11449746406E+02  6.00000000000E+01  0.0000E+00  9.0
       -2    1    4    4    0  504  5.69076285375E+01  8.67003226046E+01  2.26862287105E+01  1.06160675900E+02  3.00000000000E-03  0.0000E+00  9.0
        1    1    4    4  504    0 -1.47333074787E+01 -6.80328142070E+00 -9.54947173580E-01  1.62562891355E+01  5.00000000000E-03  0.0000E+00  9.0
  3000022    1    4    4    0    0  2.78101530373E+01  9.16775640327E+01 -5.05234429532E+01  1.23817602330E+02  6.00000000000E+01  0.0000E+00  9.0
</event>
<event>
10    1   3.4312288E-02   4.9870000E+02  -1.0000000E+00   9.3520000E-02
       11   -1    0    0    0    0  0.00000000000E+00  0.00000000000E+00  2.49964999790E+02  2.49964999790E+02  0.00000000000E+00  0.0000E+00  9.0
      -11   -1    0    0    0    0  0.00000000000E+00  0.00000000000E+00 -2.48761219380E+02  2.48761219380E+02  0.00000000000E+00  0.0000E+00  9.0
  3000025    2    1    2    0    0 -6.37961924915E+00 -1.81015572110E+02  6.21362809553E+01  2.49498236704E+02  1.59940976050E+02  4.4467E-13  9.0
 -3000025    2    1    2    0    0  6.37961924915E+00  1.81015572110E+02 -6.09325005413E+01  2.49227982476E+02  1.59982751379E+02  3.2516E-12  9.0
       14    1    3    3    0    0 -1.48053518514E+01 -3.38869804773E+01 -2.16254175365E+01  4.28390542956E+01  0.00000000000E+00  0.0000E+00  9.0
      -13    1    3    3    0    0 -1.86852031148E+01 -1.04188720267E+02  2.56752985699E+01  1.08920422215E+02  1.05700000000E-01  0.0000E+00  9.0
  3000022    1    3    3    0    0  2.71109357171E+01 -4.29398713649E+01  5.80863999219E+01  9.77387601936E+01  6.00000000000E+01  0.0000E+00  9.0
       -2    1    4    4    0  500 -3.69684924015E+01  1.21757088086E+02 -5.91918689562E+01  1.40339357591E+02  3.00000000000E-03  0.0000E+00  9.0
        1    1    4    4  500    0  1.14803345958E+01  1.47084601417E+01  1.73006749804E+01  2.54450439565E+01  5.00000000000E-03  0.0000E+00  9.0
  3000022    1    4    4    0    0  3.18677770549E+01  4.45500238814E+01 -1.90413065662E+01  8.34435809275E+01  6.00000000000E+01  0.0000E+00  9.0
</event>
<event>
10    1   3.4312288E-02   4.5510000E+02  -1.0000000E+00   9.4540000E-02
       11   -1    0    0    0    0  0.00000000000E+00  0.00000000000E+00  2.46792387010E+02  2.46792387010E+02  0.00000000000E+00  0.0000E+00  9.0
      -11   -1    0    0    0    0  0.00000000000E+00  0.00000000000E+00 -2.09826490940E+02  2.09826490940E+02  0.00000000000E+00  0.0000E+00  9.0
  3000025    2    1    2    0    0  9.32624004349E+01  9.74260978789E+01  1.08213411847E+02  2.35617134081E+02  1.60048653497E+02  4.1733E-12  9.0
 -3000025    2    1    2    0    0 -9.32624004349E+01 -9.74260978789E+01 -7.12475157731E+01  2.21001743863E+02  1.59924489693E+02  7.9258E-14  9.0
        2    1    3    3  500    0 -1.34676013056E+01 -5.71723603487E+00  2.32553209030E+01  2.74749528136E+01  3.00000000000E-03  0.0000E+00  9.0
       -1    1    3    3    0  500  7.41503995569E+01  6.83833054228E+01  8.44074004705E+01  1.31526299629E+02  5.00000000000E-03  0.0000E+00  9.0
  3000022    1    3    3    0    0  3.25796021827E+01  3.47600284909E+01  5.50690472704E-01  7.66158816374E+01  6.00000000000E+01  0.0000E+00  9.0
       -4    1    4    4    0  504 -5.68204422927E+01 -4.63974627102E+01  1.46724831666E+01  7.48246249476E+01  1.46817165330E+00  0.0000E+00  9.0
        3    1    4    4  504    0 -9.08102221512E+00  1.89250536128E+01 -2.37151707529E+01  3.16713110331E+01  2.00000000000E-01  0.0000E+00  9.0
  3000022    1    4    4    0    0 -2.73609359279E+01 -6.99536887816E+01 -6.22048281869E+01  1.14505807882E+02  6.00000000000E+01  0.0000E+00  9.0
</event>
<event>
10    1   3.4312288E-02   4.8480000E+02  -1.0000000E+00   9.3830000E-02
       11   -1    0    0    0    0  0.00000000000E+00  0.00000000000E+00  2.35607918860E+02  2.35607918860E+02  0.00000000000E+00  0.0000E+00  9.0
      -11   -1    0    0    0    0  0.00000000000E+00  0.00000000000E+00 -2.49408124380E+02  2.49408124380E+02  0.00000000000E+00  0.0000E+00  9.0
  3000025    2    1    2    0    0  6.72067663388E+01  1.62044507928E+02 -5.55531536502E+01  2.43824101513E+02  1.59965207488E+02  1.0033E-12  9.0
 -3000025    2    1    2    0    0 -6.72067663388E+01 -1.62044507928E+02  4.17529481262E+01  2.41191941726E+02  1.60172007807E+02  1.1500E-12  9.0
        4    1    3    3  500    0  3.78888595960E+01  4.52991835917E+01 -5.50261701403E+01  8.07317573441E+01  1.46817165330E+00  0.0000E+00  9.0
       -3    1    3    3    0  500  2.06785230024E+01 -7.98940145654E+00  9.34205609835E+00  2.40571374303E+01  2.00000000000E-01  0.0000E+00  9.0
  3000022    1    3    3    0    0  8.63938373929E+00  1.24734725792E+02 -9.86903960814E+00  1.39035206738E+02  6.00000000000E+01  0.0000E+00  9.0
       -4    1    4    4    0  504  1.82409532224E+01 -9.30698726000E+01 -6.54152070729E+00  9.50772348221E+01  1.46817165330E+00  0.0000E+00  9.0
        3    1    4    4  504    0 -3.98176149503E+01 -3.67766077621E+01  3.06491947001E+01  6.22685673079E+01  2.00000000000E-01  0.0000E+00  9.0
  3000022    1    4    4    0    0 -4.56301046110E+01 -3.21980275664E+01  1.76452741339E+01  8.38461395965E+01  6.00000000000E+01  0.0000E+00  9.0
</event>
<event>
10    1   3.4312288E-02   4.9450000E+02  -1.0000000E+00   9.3610000E-02
       11   -1    0    0    0    0  0.00000000000E+00  0.00000000000E+00  2.44483772350E+02  2.44483772350E+02  0.00000000000E+00  0.0000E+00  9.0
      -11   -1    0    0    0    0  0.00000000000E+00  0.00000000000E+00 -2.49999998370E+02  2.49999998370E+02  0.00000000000E+00  0.0000E+00  9.0
  3000025    2    1    2    0    0 -1.42587197293E+02 -1.11716384060E+02  4.92721046409E+01  2.46604469572E+02  1.59919869990E+02  2.5807E-12  9.0
 -3000025    2    1    2    0    0  1.42587197293E+02  1.11716384060E+02 -5.47883306629E+01  2.47879301150E+02  1.60095994523E+02  2.2593E-12  9.0
        4    1    3    3  500    0  2.26209192037E+01 -4.07554297371E+00  2.03126488737E+01  3.07095305797E+01  1.46817165330E+00  0.0000E+00  9.0
       -3    1    3    3    0  500 -5.09933726732E+01 -3.83623306719E+01 -9.43410786877E+00  6.45060839181E+01  2.00000000000E-01  0.0000E+00  9.0
  3000022    1    3    3    0    0 -1.14214743824E+02 -6.92785104144E+01  3.83935636357E+01  1.51388855074E+02  6.00000000000E+01  0.0000E+00  9.0
       -4    1    4    4    0  504  7.72232566248E+01  7.61200693800E+01  5.99012239178E+00  1.08608164612E+02  1.46817165330E+00  0.0000E+00  9.0
        3    1    4    4  504    0  5.33447379106E+01  3.66755312491E+00 -4.12722955632E+01  6.75466830402E+01  2.00000000000E-01  0.0000E+00  9.0
  3000022    1    4    4    0    0  1.20192027577E+01  3.19287615550E+01 -1.95061574914E+01  7.17244534970E+01  6.00000000000E+01  0.0000E+00  9.0
</event>
<event>
10    1   3.4312288E-02   4.8720000E+02  -1.0000000E+00   9.3780000E-02
       11   -1    0    0    0    0  0.00000000000E+00  0.00000000000E+00  2.37620603410E+02  2.37620603410E+02  0.00000000000E+00  0.0000E+00  9.0
      -11   -1    0    0    0    0  0.00000000000E+00  0.00000000000E+00 -2.49745530700E+02  2.49745530700E+02  0.00000000000E+00  0.0000E+00  9.0
  3000025    2    1    2    0    0 -1.55915583275E+02  7.43616400432E+01 -7.04433889007E+01  2.45754499579E+02  1.59980250048E+02  1.2205E-12  9.0
 -3000025    2    1    2    0    0  1.55915583275E+02 -7.43616400432E+01  5.83184616127E+01  2.41611634524E+02  1.58542790295E+02  7.1808E-13  9.0
       14    1    3    3    0    0 -8.64639869449E+01 -1.85017510399E+01 -1.16687702084E+01  8.91879814108E+01  0.00000000000E+00  0.0000E+00  9.0
      -13    1    3    3    0    0 -4.38442305419E+01  4.81208033240E+01 -3.52868464111E+01  7.40479639592E+01  1.05700000000E-01  0.0000E+00  9.0
  3000022    1    3    3    0    0 -2.56073657891E+01  4.47425877602E+01 -2.34877722813E+01  8.25185542098E+01  6.00000000000E+01  0.0000E+00  9.0
       -4    1    4    4    0  500  3.41069485081E+01 -1.57972154962E+01  4.61399759171E+01  5.95305707986E+01  1.46817165330E+00  0.0000E+00  9.0
        3    1    4    4  500    0  9.68344876570E+01 -2.48304833440E+01 -2.02501883254E+01  1.01997946205E+02  2.00000000000E-01  0.0000E+00  9.0
  3000022    1    4    4    0    0  2.49741471103E+01 -3.37339412031E+01  3.24286740210E+01  8.00831175201E+01  6.00000000000E+01  0.0000E+00  9.0
</event>
<event>
10    1   3.4312288E-02   3.8850000E+02  -1.0000000E+00   9.6370000E-02
       11   -1    0    0    0    0  0.00000000000E+00  0.00000000000E+00  2.49523306730E+02  2.49523306730E+02  0.00000000000E+00  0.0000E+00  9.0
      -11   -1    0    0    0    0  0.00000000000E+00  0.00000000000E+00 -1.51231486740E+02  1.51231486740E+02  0.00000000000E+00  0.0000E+00  9.0
  3000025    2    1    2    0    0 -5.47240661826E+01 -7.33602908207E+01 -1.41324866606E+01  1.84862111734E+02  1.59993179500E+02  1.1795E-12  9.0
 -3000025    2    1    2    0    0  5.47240661826E+01  7.33602908207E+01  1.12424306652E+02  2.15892681733E+02  1.59981153925E+02  2.7693E-12  9.0
        2    1    3    3  500    0 -1.61817879921E+00 -4.40840752969E+01  2.37887846886E+01  5.01191628359E+01  3.00000000000E-03  0.0000E+00  9.0
       -1    1    3    3    0  500 -6.11337536215E+01  3.38462539360E-01 -1.07083148878E+01  6.20654366091E+01  5.00000000000E-03  0.0000E+00  9.0
  3000022    1    3    3    0    0  8.02786623805E+00 -2.96146780633E+01 -2.72129564610E+01  7.26775122887E+01  6.00000000000E+01  0.0000E+00  9.0
       -4    1    4    4    0  504  4.30970383415E+01 -7.23222553978E+00  1.81749594919E+01  4.73512880564E+01  1.46817165330E+00  0.0000E+00  9.0
        3    1    4    4  504    0  7.17612926729E-01  6.24100275186E+01  1.03948844441E+01  6.32741663382E+01  2.00000000000E-01  0.0000E+00  9.0
  3000022    1    4    4    0    0  1.09094149144E+01  1.81824888419E+01  8.38544627157E+01  1.05267227339E+02  6.00000000000E+01  0.0000E+00  9.0
</event>
<event>
10    1   3.4312288E-02   4.9920000E+02  -1.0000000E+00   9.3510000E-02
       11   -1    0    0    0    0  0.00000000000E+00  0.00000000000E+00  2.49999999810E+02  2.49999999810E+02  0.00000000000E+00  0.0000E+00  9.0
      -11   -1    0    0    0    0  0.00000000000E+00  0.00000000000E+00 -2.49190550040E+02  2.49190550040E+02  0.00000000000E+00  0.0000E+00  9.0
  3000025    2    1    2    0    0  5.12369063244E+01 -1.72231739363E+02  6.76158425030E+01  2.49955322309E+02  1.60052392608E+02  8.3858E-13  9.0
 -3000025    2    1    2    0    0 -5.12369063244E+01  1.72231739363E+02 -6.68063927290E+01  2.49235227544E+02  1.59267422676E+02  6.1672E-13  9.0
       14    1    3    3    0    0  1.58121387270E+01 -1.66602798355E+01  3.56991135194E+01  4.24501514884E+01  0.00000000000E+00  0.0000E+00  9.0
      -13    1    3    3    0    0 -3.50392230716E+01 -3.04612140822E+01  2.25171725325E+01  5.16010363091E+01  1.05700000000E-01  0.0000E+00  9.0
  3000022    1    3    3    0    0  7.04639906692E+01 -1.25110245444E+02  9.39955645114E+00  1.55904134511E+02  6.00000000000E+01  0.0000E+00  9.0
       -2    1    4    4    0  500  3.09041338620E+01  3.85891927238E+01 -3.45375662080E+01  6.03078334332E+01  3.00000000000E-03  0.0000E+00  9.0
        1    1    4    4  500    0 -3.96884151466E+01  8.09176948950E+00 -3.77363887384E+00  4.06803073448E+01  5.00000000000E-03  0.0000E+00  9.0
  3000022    1    4    4    0    0 -4.24526250398E+01  1.25550777150E+02 -2.84951876476E+01  1.48247086766E+02  6.00000000000E+01  0.0000E+00  9.0
</event>
<event>
10    1   3.4312288E-02   5.0000000E+02  -1.0000000E+00   9.3490000E-02
       11   -1    0    0    0    0  0.00000000000E+00  0.00000000000E+00  2.49999761200E+02  2.49999761200E+02  0.00000000000E+00  0.0000E+00  9.0
      -11   -1    0    0    0    0  0.00000000000E+00  0.00000000000E+00 -2.49999999980E+02  2.49999999980E+02  0.00000000000E+00  0.0000E+00  9.0
  3000025    2    1    2    0    0 -1.91048571862E+02 -8.65287758252E+00  1.88965067852E+01  2.49976334135E+02  1.59864506873E+02  1.2382E-12  9.0
 -3000025    2    1    2    0    0  1.91048571862E+02  8.65287758252E+00 -1.88967455652E+01  2.50023427038E+02  1.59938106697E+02  3.4751E-12  9.0
        4    1    3    3  500    0 -8.07456110436E+01  1.06990132160E+01 -1.94931932047E+01  8.37643283022E+01  1.46817165330E+00  0.0000E+00  9.0
       -3    1    3    3    0  500 -2.96796020052E+01  1.60912624630E+01  4.85801125999E+01  5.91597400523E+01  2.00000000000E-01  0.0000E+00  9.0
  3000022    1    3    3    0    0 -8.06233588143E+01 -3.54431532626E+01 -1.01904126100E+01  1.07052265781E+02  6.00000000000E+01  0.0000E+00  9.0
       -4    1    4    4    0  504 -2.13676364272E+00  1.54756936377E+01 -2.76063308077E+01  3.17541789549E+01  1.46817165330E+00  0.0000E+00  9.0
        3    1    4    4  504    0  8.64702152022E+01  2.43573436291E+01  1.78991810305E+01  9.16013045068E+01  2.00000000000E-01  0.0000E+00  9.0
  3000022    1    4    4    0    0  1.06715120303E+02 -3.11801596842E+01 -9.18959578772E+00  1.26667943577E+02  6.00000000000E+01  0.0000E+00  9.0
</event>
<event>
10    1   3.4312288E-02   4.9430000E+02  -1.0000000E+00   9.3620000E-02
       11   -1    0    0    0    0  0.00000000000E+00  0.00000000000E+00  2.44373698350E+02  2.44373698350E+02  0.00000000000E+00  0.0000E+00  9.0
      -11   -1    0    0    0    0  0.00000000000E+00  0.00000000000E+00 -2.49999846740E+02  2.49999846740E+02  0.00000000000E+00  0.0000E+00  9.0
  3000025    2    1    2    0    0  1.58482363998E+02 -9.77157307304E+01  2.61523704782E+01  2.46888194099E+02  1.60015031085E+02  5.5245E-13  9.0
 -3000025    2    1    2    0    0 -1.58482363998E+02  9.77157307304E+01 -3.17785188582E+01  2.47485350985E+02  1.59919045021E+02  1.2524E-12  9.0
        4    1    3    3  500    0 -7.65494665933E+00 -3.14361676021E+01  2.78183588337E+01  4.26948176957E+01  1.46817165330E+00  0.0000E+00  9.0
       -3    1    3    3    0  500  6.50950780744E+01  4.44616672578E+00 -1.31458395338E+01  6.65581751937E+01  2.00000000000E-01  0.0000E+00  9.0
  3000022    1    3    3    0    0  1.01042232584E+02 -7.07257298551E+01  1.14798511780E+01  1.37635201210E+02  6.00000000000E+01  0.0000E+00  9.0
      -14    1    4    4    0    0  1.10302042629E+01  2.61219744771E+01 -1.17315540643E+01  3.06863539286E+01  0.00000000000E+00  0.0000E+00  9.0
       13    1    4    4    0    0 -1.04742316881E+02  4.74256499186E+01 -4.24398517216E+01  1.22561402580E+02  1.05700000000E-01  0.0000E+00  9.0
  3000022    1    4    4    0    0 -6.47702513794E+01  2.41681063347E+01  2.23928869278E+01  9.42375944754E+01  6.00000000000E+01  0.0000E+00  9.0
</event>
<event>
10    1   3.4312288E-02   5.0000000E+02  -1.0000000E+00   9.3490000E-02
       11   -1    0    0    0    0  0.00000000000E+00  0.00000000000E+00  2.49999994160E+02  2.49999994160E+02  0.00000000000E+00  0.0000E+00  9.0
      -11   -1    0    0    0    0  0.00000000000E+00  0.00000000000E+00 -2.49998108920E+02  2.49998108920E+02  0.00000000000E+00  0.0000E+00  9.0
  3000025    2    1    2    0    0  3.15738346196E+01 -1.88645889046E+02 -1.90884739656E+01  2.49917286717E+02  1.59718821292E+02  6.3439E-12  9.0
 -3000025    2    1    2    0    0 -3.15738346196E+01  1.88645889046E+02  1.90903591986E+01  2.50080816368E+02  1.59974355490E+02  4.2513E-13  9.0
        2    1    3    3  500    0 -3.87789677318E+00 -2.10593967178E+01  8.32105574731E+00  2.29733813630E+01  3.00000000000E-03  0.0000E+00  9.0
       -1    1    3    3    0  500 -1.48881090708E+01 -7.56930272983E+01 -6.45841821188E+01  1.00609178400E+02  5.00000000000E-03  0.0000E+00  9.0
  3000022    1    3    3    0    0  5.03398404631E+01 -9.18934650302E+01  3.71746524059E+01  1.26334726954E+02  6.00000000000E+01  0.0000E+00  9.0
       -4    1    4    4    0  504  1.26744594757E+01  1.16658190104E+02 -9.66102545890E-01  1.17357846451E+02  1.46817165330E+00  0.0000E+00  9.0
        3    1    4    4  504    0 -3.06617758438E+01  1.52065997377E+01 -2.02918698615E+01  3.97892593040E+01  2.00000000000E-01  0.0000E+00  9.0
  3000022    1    4    4    0    0 -1.35865182510E+01  5.67810992040E+01  4.03483316054E+01  9.29337106132E+01  6.00000000000E+01  0.0000E+00  9.0
</event>
<event>
10    1   3.4312288E-02   4.8890000E+02  -1.0000000E+00   9.3740000E-02
       11   -1    0    0    0    0  0.00000000000E+00  0.00000000000E+00  2.49630932200E+02  2.49630932200E+02  0.00000000000E+00  0.0000E+00  9.0
      -11   -1    0    0    0    0  0.00000000000E+00  0.00000000000E+00 -2.39409622190E+02  2.39409622190E+02  0.00000000000E+00  0.0000E+00  9.0
  3000025    2    1    2    0    0 -1.81215832243E+02  2.90088467580E+01  2.73446802792E+01  2.45123294790E+02  1.60178048007E+02  3.9004E-13  9.0
 -3000025    2    1    2    0    0  1.81215832243E+02 -2.90088467580E+01 -1.71233702682E+01  2.43917259590E+02  1.59755214848E+02  2.8905E-13  9.0
        4    1    3    3  500    0 -4.44377995632E+01  4.03441631701E+01 -8.31924343325E+00  6.06113427604E+01  1.46817165330E+00  0.0000E+00  9.0
       -3    1    3    3    0  500 -9.03322105163E+01 -3.59788237725E+01  2.67826837681E-01  9.72342313593E+01  2.00000000000E-01  0.0000E+00  9.0
  3000022    1    3    3    0    0 -4.64458221637E+01  2.46435073615E+01  3.53960968742E+01  8.72777206707E+01  6.00000000000E+01  0.0000E+00  9.0
       -4    1    4    4    0  504  3.85970646014E+01 -4.49206228794E+01  8.06142108123E+00  5.97891109950E+01  1.46817165330E+00  0.0000E+00  9.0
        3    1    4    4  504    0  7.48386795405E+01  3.01173771897E+00 -4.91719192182E+01  8.95980812241E+01  2.00000000000E-01  0.0000E+00  9.0
  3000022    1    4    4    0    0  6.77800881009E+01  1.29000384035E+01  2.39871278687E+01  9.45300673710E+01  6.00000000000E+01  0.0000E+00  9.0
</event>
<event>
10    1   3.4312288E-02   4.7450000E+02  -1.0000000E+00   9.4070000E-02
       11   -1    0    0    0    0  0.00000000000E+00  0.00000000000E+00  2.49999999460E+02  2.49999999460E+02  0.00000000000E+00  0.0000E+00  9.0
      -11   -1    0    0    0    0  0.00000000000E+00  0.00000000000E+00 -2.25172732120E+02  2.25172732120E+02  0.00000000000E+00  0.0000E+00  9.0
  3000025    2    1    2    0    0  7.84146790029E+01 -1.36197164649E+02  9.00824046542E+01  2.41658718108E+02  1.59954890102E+02  1.4443E-12  9.0
 -3000025    2    1    2    0    0 -7.84146790029E+01  1.36197164649E+02 -6.52551373192E+01  2.33514013473E+02  1.59912576117E+02  5.5367E-13  9.0
        4    1    3    3  500    0  2.05361872639E+01  2.80551604497E+00  5.55781672759E+01  5.93354372476E+01  1.46817165330E+00  0.0000E+00  9.0
       -3    1    3    3    0  500  2.50557622140E+01 -2.96228416856E+01 -1.83438557007E+01  4.29166752163E+01  2.00000000000E-01  0.0000E+00  9.0
  3000022    1    3    3    0    0  3.28227295251E+01 -1.09379839009E+02  5.28480930790E+01  1.39406605644E+02  6.00000000000E+01  0.0000E+00  9.0
       -2    1    4    4    0  504 -4.70378988952E+01  1.11063503091E+02 -3.07163037452E+01  1.24463476474E+02  3.00000000000E-03  0.0000E+00  9.0
        1    1    4    4  504    0 -2.76227492674E+01  5.51549642876E+00 -3.61058289069E+01  4.57937537662E+01  5.00000000000E-03  0.0000E+00  9.0
  3000022    1    4    4    0    0 -3.75403084027E+00  1.96181651295E+01  1.56699533285E+00  6.32567832329E+01  6.00000000000E+01  0.0000E+00  9.0
</event>
<event>
10    1   3.4312288E-02   4.9380000E+02  -1.0000000E+00   9.3630000E-02
       11   -1    0    0    0    0  0.00000000000E+00  0.00000000000E+00  2.43863663540E+02  2.43863663540E+02  0.00000000000E+00  0.0000E+00  9.0
      -11   -1    0    0    0    0  0.00000000000E+00  0.00000000000E+00 -2.49994579730E+02  2.49994579730E+02  0.00000000000E+00  0.0000E+00  9.0
  3000025    2    1    2    0    0 -9.46579180646E+01  7.60592579667E+01  1.41010147589E+02  2.44873262918E+02  1.59166331221E+02  2.4371E-12  9.0
 -3000025    2    1    2    0    0  9.46579180646E+01 -7.60592579667E+01 -1.47141063779E+02  2.48984980353E+02  1.59993423667E+02  8.3790E-13  9.0
        4    1    3    3  500    0 -2.05325994068E+01  3.29743792065E+01 -9.19887443436E+00  3.99458651342E+01  1.46817165330E+00  0.0000E+00  9.0
       -3    1    3    3    0  500 -2.83961041548E+01 -2.44512178246E+01  4.98542499267E+01  6.23673554035E+01  2.00000000000E-01  0.0000E+00  9.0
  3000022    1    3    3    0    0 -4.57292145030E+01  6.75360965847E+01  1.00354772097E+02  1.42560042380E+02  6.00000000000E+01  0.0000E+00  9.0
       -4    1    4    4    0  504  1.97969705424E+01  2.51530485417E+01 -4.62073813533E+01  5.62305389724E+01  1.46817165330E+00  0.0000E+00  9.0
        3    1    4    4  504    0 -2.04571835828E+00 -3.64927087421E+01  2.37339257982E+00  3.66275271793E+01  2.00000000000E-01  0.0000E+00  9.0
  3000022    1    4    4    0    0  7.69066658800E+01 -6.47195977663E+01 -1.03307075005E+02  1.56126914201E+02  6.00000000000E+01  0.0000E+00  9.0
</event>
<event>
10    1   3.4312288E-02   5.0000000E+02  -1.0000000E+00   9.3490000E-02
       11   -1    0    0    0    0  0.00000000000E+00  0.00000000000E+00  2.49999997290E+02  2.49999997290E+02  0.00000000000E+00  0.0000E+00  9.0
      -11   -1    0    0    0    0  0.00000000000E+00  0.00000000000E+00 -2.49999418720E+02  2.49999418720E+02  0.00000000000E+00  0.0000E+00  9.0
  3000025    2    1    2    0    0  1.81120032229E+02 -5.12012446378E+01  4.40342173424E+01  2.49000977600E+02  1.56959998157E+02  3.1050E-12  9.0
 -3000025    2    1    2    0    0 -1.81120032229E+02  5.12012446378E+01 -4.40336387664E+01  2.50998438418E+02  1.60110028474E+02  1.6340E-12  9.0
        4    1    3    3  500    0 -1.34866032302E+01 -1.44151360892E+01 -2.81739382609E+00  1.99944455070E+01  1.46817165330E+00  0.0000E+00  9.0
       -3    1    3    3    0  500  7.40757569852E+01  2.48265266971E+00  4.88066948382E+01  8.87440972586E+01  2.00000000000E-01  0.0000E+00  9.0
  3000022    1    3    3    0    0  1.20530878474E+02 -3.92687612184E+01 -1.95508366968E+00  1.40262434834E+02  6.00000000000E+01  0.0000E+00  9.0
       -2    1    4    4    0  504  4.10266740388E+00 -1.83690876161E+01  6.27489636951E+00  1.98401006329E+01  3.00000000000E-03  0.0000E+00  9.0
        1    1    4    4  504    0 -1.17529742224E+02  1.55881153989E+01 -1.24013607668E+01  1.19205802807E+02  5.00000000000E-03  0.0000E+00  9.0
  3000022    1    4    4    0    0 -6.76929574086E+01  5.39822168545E+01 -3.79071743682E+01  1.11952534977E+02  6.00000000000E+01  0.0000E+00  9.0
</event>
<event>
10    1   3.4312288E-02   4.9900000E+02  -1.0000000E+00   9.3510000E-02
       11   -1    0    0    0    0  0.00000000000E+00  0.00000000000E+00  2.48988837910E+02  2.48988837910E+02  0.00000000000E+00  0.0000E+00  9.0
      -11   -1    0    0    0    0  0.00000000000E+00  0.00000000000E+00 -2.49999999990E+02  2.49999999990E+02  0.00000000000E+00  0.0000E+00  9.0
  3000025    2    1    2    0    0  6.10868408571E-01  1.67543216598E+02 -9.31341589313E+01  2.49681522573E+02  1.59986838728E+02  2.5924E-13  9.0
 -3000025    2    1    2    0    0 -6.10868408571E-01 -1.67543216598E+02  9.21229968473E+01  2.49307315339E+02  1.59988713180E+02  5.1716E-12  9.0
       14    1    3    3    0    0  8.72208606918E+00  3.85874149481E+01 -8.07177075569E+01  8.98911101891E+01  0.00000000000E+00  0.0000E+00  9.0
      -13    1    3    3    0    0  1.01130127945E+01  9.33420550206E+00  1.66861588334E+01  2.16295975283E+01  1.05700000000E-01  0.0000E+00  9.0
  3000022    1    3    3    0    0 -1.82242304551E+01  1.19621596147E+02 -2.91026102087E+01  1.38160814855E+02  6.00000000000E+01  0.0000E+00  9.0
       -4    1    4    4    0  500  3.90022222896E+01 -4.53333782047E+01  7.81492329366E+01  9.84161910438E+01  1.46817165330E+00  0.0000E+00  9.0
        3    1    4    4  500    0 -1.13185909165E+01 -5.32609973475E+01  2.26184004768E+00  5.44977087517E+01  2.00000000000E-01  0.0000E+00  9.0
  3000022    1    4    4    0    0 -2.82944997817E+01 -6.89488410458E+01  1.17119238620E+01  9.63934155428E+01  6.00000000000E+01  0.0000E+00  9.0
</event>
<event>
10    1   3.4312288E-02   4.6290000E+02  -1.0000000E+00   9.4350000E-02
       11   -1    0    0    0    0  0.00000000000E+00  0.00000000000E+00  2.32169910510E+02  2.32169910510E+02  0.00000000000E+00  0.0000E+00  9.0
      -11   -1    0    0    0    0  0.00000000000E+00  0.00000000000E+00 -2.30729374080E+02  2.30729374080E+02  0.00000000000E+00  0.0000E+00  9.0
  3000025    2    1    2    0    0  1.36871246603E+02 -2.28888861436E+01  9.38719172134E+01  2.31605998329E+02  1.59911733043E+02  3.4622E-13  9.0
 -3000025    2    1    2    0    0 -1.36871246603E+02  2.28888861436E+01 -9.24313807814E+01  2.31293286271E+02  1.60297800562E+02  2.2076E-12  9.0
        4    1    3    3  500    0  3.11973466536E+01  3.86190399262E+01  8.08759087986E+00  5.03216587295E+01  1.46817165330E+00  0.0000E+00  9.0
       -3    1    3    3    0  500  5.56362437712E+01 -2.60757854083E+01  7.15726343728E+01  9.43293178004E+01  2.00000000000E-01  0.0000E+00  9.0
  3000022    1    3    3    0    0  5.00376561785E+01 -3.54321406604E+01  1.42116919607E+01  8.69550217987E+01  6.00000000000E+01  0.0000E+00  9.0
       -4    1    4    4    0  504 -3.60388845884E+01 -3.71446243177E+01 -4.51717297069E+01  6.87107343201E+01  1.46817165330E+00  0.0000E+00  9.0
        3    1    4    4  504    0 -7.50607955440E+01  1.85587952717E+01 -3.22706978341E+01  8.37853796813E+01  2.00000000000E-01  0.0000E+00  9.0
  3000022    1    4    4    0    0 -2.57715664710E+01  4.14747151896E+01 -1.49889532402E+01  7.87971722695E+01  6.00000000000E+01  0.0000E+00  9.0
</event>
<event>
10    1   3.4312288E-02   4.0000000E+02  -1.0000000E+00   9.6030000E-02
       11   -1    0    0    0    0  0.00000000000E+00  0.00000000000E+00  1.60199522680E+02  1.60199522680E+02  0.00000000000E+00  0.0000E+00  9.0
      -11   -1    0    0    0    0  0.00000000000E+00  0.00000000000E+00 -2.49703063300E+02  2.49703063300E+02  0.00000000000E+00  0.0000E+00  9.0
  3000025    2    1    2    0    0 -2.94432141623E+01 -6.03523013213E+01 -1.46703282222E+02  2.27255075482E+02  1.60042847958E+02  7.5080E-13  9.0
 -3000025    2    1    2    0    0  2.94432141623E+01  6.03523013213E+01  5.71997416057E+01  1.82647510494E+02  1.59934360020E+02  3.6381E-13  9.0
       14    1    3    3    0    0 -5.93790057255E+01 -2.17532274178E+01 -1.13670314714E+02  1.30076937507E+02  0.00000000000E+00  0.0000E+00  9.0
      -13    1    3    3    0    0  2.17960671914E+01 -6.37103105233E+00 -1.01061078339E+01  2.48556466366E+01  1.05700000000E-01  0.0000E+00  9.0
  3000022    1    3    3    0    0  8.13972437085E+00 -3.22280428511E+01 -2.29268596733E+01  7.23224913379E+01  6.00000000000E+01  0.0000E+00  9.0
       -4    1    4    4    0  500  1.94359129122E+01  5.83414862827E+00  5.75366038649E+01  6.10279305995E+01  1.46817165330E+00  0.0000E+00  9.0
        3    1    4    4  500    0 -1.51194700960E+01  5.42926527969E+01  3.41418856979E+00  5.64622635687E+01  2.00000000000E-01  0.0000E+00  9.0
  3000022    1    4    4    0    0  2.51267713460E+01  2.25499896061E-01 -3.75105082899E+00  6.51573163260E+01  6.00000000000E+01  0.0000E+00  9.0
</event>
<event>
10    1   3.4312288E-02   4.9980000E+02  -1.0000000E+00   9.3490000E-02
       11   -1    0    0    0    0  0.00000000000E+00  0.00000000000E+00  2.49989565900E+02  2.49989565900E+02  0.00000000000E+00  0.0000E+00  9.0
      -11   -1    0    0    0    0  0.00000000000E+00  0.00000000000E+00 -2.49853044060E+02  2.49853044060E+02  0.00000000000E+00  0.0000E+00  9.0
  3000025    2    1    2    0    0  1.62364935159E+02  9.90572097756E+01 -2.47927518115E+01  2.50046779115E+02  1.60418229094E+02  3.6862E-14  9.0
 -3000025    2    1    2    0    0 -1.62364935159E+02 -9.90572097756E+01  2.49292736535E+01  2.49795830840E+02  1.60005579410E+02  2.3079E-12  9.0
        4    1    3    3  500    0  4.62225294275E+01  1.79073149248E+01  3.48518830590E+01  6.06135581801E+01  1.46817165330E+00  0.0000E+00  9.0
       -3    1    3    3    0  500  9.57210995678E+01  5.70829082439E+01 -4.42421317550E+01  1.19909939281E+02  2.00000000000E-01  0.0000E+00  9.0
  3000022    1    3    3    0    0  2.04213061641E+01  2.40669866069E+01 -1.54025031161E+01  6.95232816546E+01  6.00000000000E+01  0.0000E+00  9.0
       -4    1    4    4    0  504 -4.74742747098E+01 -9.11225979526E+00 -3.38217508647E+01  5.90161536984E+01  1.46817165330E+00  0.0000E+00  9.0
        3    1    4    4  504    0 -3.78795320950E+01 -4.15526170320E+00  4.66758744205E+01  6.02561399733E+01  2.00000000000E-01  0.0000E+00  9.0
  3000022    1    4    4    0    0 -7.70111283544E+01 -8.57896882771E+01  1.20751500972E+01  1.30523537169E+02  6.00000000000E+01  0.0000E+00  9.0
</event>
<event>
10    1   3.4312288E-02   4.1290000E+02  -1.0000000E+00   9.5660000E-02
       11   -1    0    0    0    0  0.00000000000E+00  0.00000000000E+00  2.44963398690E+02  2.44963398690E+02  0.00000000000E+00  0.0000E+00  9.0
      -11   -1    0    0    0    0  0.00000000000E+00  0.00000000000E+00 -1.73978465820E+02  1.73978465820E+02  0.00000000000E+00  0.0000E+00  9.0
  3000025    2    1    2    0    0  6.07224667675E+01  1.15101108633E+02  2.62987589793E+01  2.07909189398E+02  1.59997259768E+02  8.4338E-13  9.0
 -3000025    2    1    2    0    0 -6.07224667675E+01 -1.15101108633E+02  4.46861738897E+01  2.11032675108E+02  1.60007664339E+02  8.7975E-14  9.0
        2    1    3    3  500    0 -1.70861366399E+01  7.05336836744E+01  2.90476905470E+01  7.81709980304E+01  3.00000000000E-03  0.0000E+00  9.0
       -1    1    3    3    0  500 -7.57590324161E+00 -3.21813653180E+00  1.14326641429E+01  1.40874606324E+01  5.00000000000E-03  0.0000E+00  9.0
  3000022    1    3    3    0    0  8.53845066491E+01  4.77855614921E+01 -1.41815957105E+01  1.15650730736E+02  6.00000000000E+01  0.0000E+00  9.0
       -4    1    4    4    0  504  4.89706893104E-01 -3.84900160157E+01 -1.62129263940E+01  4.17939667415E+01  1.46817165330E+00  0.0000E+00  9.0
        3    1    4    4  504    0 -7.17745768740E+01 -6.29249828024E+01  3.76743162183E+01  1.02618406968E+02  2.00000000000E-01  0.0000E+00  9.0
  3000022    1    4    4    0    0  1.05624032135E+01 -1.36861098153E+01  2.32247840647E+01  6.66203013981E+01  6.00000000000E+01  0.0000E+00  9.0
</event>
<event>
10    1   3.4312288E-02   4.7730000E+02  -1.0000000E+00   9.4010000E-02
       11   -1    0    0    0    0  0.00000000000E+00  0.00000000000E+00  2.49581391020E+02  2.49581391020E+02  0.00000000000E+00  0.0000E+00  9.0
      -11   -1    0    0    0    0  0.00000000000E+00  0.00000000000E+00 -2.28154203270E+02  2.28154203270E+02  0.00000000000E+00  0.0000E+00  9.0
  3000025    2    1    2    0    0  6.54768321643E+01 -1.55779593736E+02  6.26241121014E+01  2.41103393013E+02  1.60170438381E+02  5.8844E-13  9.0
 -3000025    2    1    2    0    0 -6.54768321643E+01  1.55779593736E+02 -4.11969243504E+01  2.36632201273E+02  1.60446610211E+02  2.2299E-12  9.0
       14    1    3    3    0    0  1.24856965618E+01 -6.10255628470E+01  5.31927448430E+01  8.19114158305E+01  0.00000000000E+00  0.0000E+00  9.0
      -13    1    3    3    0    0  6.57968528914E+01 -5.53533767659E+01  4.02077740018E+00  8.60778716814E+01  1.05700000000E-01  0.0000E+00  9.0
  3000022    1    3    3    0    0 -1.28057172889E+01 -3.94006541234E+01  5.41058985826E+00  7.31141055012E+01  6.00000000000E+01  0.0000E+00  9.0
       -2    1    4    4    0  500 -2.99458262725E+01  9.11683818460E+01 -1.40153534723E+01  9.69786394085E+01  3.00000000000E-03  0.0000E+00  9.0
        1    1    4    4  500    0 -4.95300300735E+00  1.09227418766E+00  3.02768869318E+01  3.06987818810E+01  5.00000000000E-03  0.0000E+00  9.0
  3000022    1    4    4    0    0 -3.05780028844E+01  6.35189377025E+01 -5.74584578099E+01  1.08954779983E+02  6.00000000000E+01  0.0000E+00  9.0
</event>
<event>
10    1   3.4312288E-02   5.0000000E+02  -1.0000000E+00   9.3490000E-02
       11   -1    0    0    0    0  0.00000000000E+00  0.00000000000E+00  2.49998584690E+02  2.49998584690E+02  0.00000000000E+00  0.0000E+00  9.0
      -11   -1    0    0    0    0  0.00000000000E+00  0.00000000000E+00 -2.49999879720E+02  2.49999879720E+02  0.00000000000E+00  0.0000E+00  9.0
  3000025    2    1    2    0    0 -1.87621608263E+02 -3.79882320352E+01 -1.62260552185E+01  2.50043351061E+02  1.60041928512E+02  7.6472E-13  9.0
 -3000025    2    1    2    0    0  1.87621608263E+02  3.79882320352E+01  1.62247601865E+01  2.49955113345E+02  1.59904165625E+02  1.2369E-12  9.0
       14    1    3    3    0    0  1.22629934673E+01  1.66053226498E+01  4.55919090243E+00  2.11401033765E+01  0.00000000000E+00  0.0000E+00  9.0
      -13    1    3    3    0    0 -7.92686596544E+01 -2.95520546310E+01  1.80102528495E+01  8.64940733028E+01  1.05700000000E-01  0.0000E+00  9.0
  3000022    1    3    3    0    0 -1.20615942076E+02 -2.50415000542E+01 -3.87954989713E+01  1.42409174382E+02  6.00000000000E+01  0.0000E+00  9.0
       -2    1    4    4    0  500  1.63680505925E+00 -5.57756505142E+00  2.64207964454E+01  2.70526681958E+01  3.00000000000E-03  0.0000E+00  9.0
        1    1    4    4  500    0  1.26533207231E+02  1.74640990897E+01  2.03986035284E+01  1.29351267254E+02  5.00000000000E-03  0.0000E+00  9.0
  3000022    1    4    4    0    0  5.94515959721E+01  2.61016979969E+01 -3.05946397872E+01  9.35511778956E+01  6.00000000000E+01  0.0000E+00  9.0
</event>
<event>
10    1   3.4312288E-02   4.8970000E+02  -1.0000000E+00   9.3720000E-02
       11   -1    0    0    0    0  0.00000000000E+00  0.00000000000E+00  2.41975292310E+02  2.41975292310E+02  0.00000000000E+00  0.0000E+00  9.0
      -11   -1    0    0    0    0  0.00000000000E+00  0.00000000000E+00 -2.47720432850E+02  2.47720432850E+02  0.00000000000E+00  0.0000E+00  9.0
  3000025    2    1    2    0    0  8.61342282584E+00 -1.23979213480E+02  1.33865253461E+02  2.42844936718E+02  1.60027250110E+02  1.8889E-12  9.0
 -3000025    2    1    2    0    0 -8.61342282584E+00  1.23979213480E+02 -1.39610394011E+02  2.46850788449E+02  1.61242715228E+02  5.7245E-13  9.0
        4    1    3    3  500    0  3.69990831342E+01 -3.19389423825E+01 -9.43735458388E-01  4.89088372168E+01  1.46817165330E+00  0.0000E+00  9.0
       -3    1    3    3    0  500 -8.61158759101E+00 -1.51992658447E+00  5.98954145507E+01  6.05307384877E+01  2.00000000000E-01  0.0000E+00  9.0
  3000022    1    3    3    0    0 -1.97740727173E+01 -9.05203445129E+01  7.49135743682E+01  1.33405361014E+02  6.00000000000E+01  0.0000E+00  9.0
       -2    1    4    4    0  504  3.28411413773E+01  4.02597502703E+01 -3.62206779275E+01  6.33350264650E+01  3.00000000000E-03  0.0000E+00  9.0
        1    1    4    4  504    0 -1.21806546524E+01  4.84133610544E+01  6.32491402137E+00  5.03212324842E+01  5.00000000000E-03  0.0000E+00  9.0
  3000022    1    4    4    0    0 -2.92739095508E+01  3.53061021554E+01 -1.09714630104E+02  1.33194529500E+02  6.00000000000E+01  0.0000E+00  9.0
</event>
<event>
10    1   3.4312288E-02   5.0000000E+02  -1.0000000E+00   9.3490000E-02
       11   -1    0    0    0    0  0.00000000000E+00  0.00000000000E+00  2.49999999600E+02  2.49999999600E+02  0.00000000000E+00  0.0000E+00  9.0
      -11   -1    0    0    0    0  0.00000000000E+00  0.00000000000E+00 -2.49999998430E+02  2.49999998430E+02  0.00000000000E+00  0.0000E+00  9.0
  3000025    2    1    2    0    0 -1.84170547736E+02 -5.28659639833E+01 -1.31027879775E+01  2.50018374236E+02  1.60074681327E+02  1.0787E-11  9.0
 -3000025    2    1    2    0    0  1.84170547736E+02  5.28659639833E+01  1.31027891455E+01  2.49981623798E+02  1.60017275169E+02  5.0046E-13  9.0
        4    1    3    3  500    0 -9.49185062960E+01 -2.60968612206E+01 -6.36939674882E+00  9.86574566162E+01  1.46817165330E+00  0.0000E+00  9.0
       -3    1    3    3    0  500 -3.12883585701E+00 -3.25262786688E+01 -2.92497488744E+01  4.38558573861E+01  2.00000000000E-01  0.0000E+00  9.0
  3000022    1    3    3    0    0 -8.61232055830E+01  5.75717590631E+00  2.25163576463E+01  1.07505060234E+02  6.00000000000E+01  0.0000E+00  9.0
       -2    1    4    4    0  504  6.16853787221E+00 -1.89656897809E+00  2.11967847888E+01  2.21574260182E+01  3.00000000000E-03  0.0000E+00  9.0
        1    1    4    4  504    0  1.41965663064E+02  5.87191437545E+01 -2.51556490107E+01  1.55675926316E+02  5.00000000000E-03  0.0000E+00  9.0
  3000022    1    4    4    0    0  3.60363468014E+01 -3.95661079282E+00  1.70616533675E+01  7.21482714650E+01  6.00000000000E+01  0.0000E+00  9.0
</event>
<event>
10    1   3.4312288E-02   4.9890000E+02  -1.0000000E+00   9.3520000E-02
       11   -1    0    0    0    0  0.00000000000E+00  0.00000000000E+00  2.49433025690E+02  2.49433025690E+02  0.00000000000E+00  0.0000E+00  9.0
      -11   -1    0    0    0    0  0.00000000000E+00  0.00000000000E+00 -2.49419922790E+02  2.49419922790E+02  0.00000000000E+00  0.0000E+00  9.0
  3000025    2    1    2    0    0  4.07143198978E+01 -1.40455606721E+02 -1.24044477330E+02  2.49182282942E+02  1.59120534413E+02  9.0806E-13  9.0
 -3000025    2    1    2    0    0 -4.07143198978E+01  1.40455606721E+02  1.24057580240E+02  2.49670665538E+02  1.59874090180E+02  2.7510E-12  9.0
        4    1    3    3  500    0 -3.01269265483E+01 -5.94547598344E+01 -3.90116335701E+01  7.72435321048E+01  1.46817165330E+00  0.0000E+00  9.0
       -3    1    3    3    0  500  3.07580791297E+01 -1.15148273359E+01  9.51262717790E+00  3.41932852495E+01  2.00000000000E-01  0.0000E+00  9.0
  3000022    1    3    3    0    0  4.00831673164E+01 -6.94860195521E+01 -9.45454709384E+01  1.37745465589E+02  6.00000000000E+01  0.0000E+00  9.0
       -4    1    4    4    0  504 -2.11882868726E+01  7.09307362204E+01  5.28972790603E+01  9.09966510447E+01  1.46817165330E+00  0.0000E+00  9.0
        3    1    4    4  504    0 -2.79717249664E+01 -1.74468248933E+01  3.12124531818E+01  4.53989683813E+01  2.00000000000E-01  0.0000E+00  9.0
  3000022    1    4    4    0    0  8.44569194086E+00  8.69716953932E+01  3.99478479991E+01  1.13275046112E+02  6.00000000000E+01  0.0000E+00  9.0
</event>
<event>
10    1   3.4312288E-02   4.8970000E+02  -1.0000000E+00   9.3720000E-02
       11   -1    0    0    0    0  0.00000000000E+00  0.00000000000E+00  2.49372987630E+02  2.49372987630E+02  0.00000000000E+00  0.0000E+00  9.0
      -11   -1    0    0    0    0  0.00000000000E+00  0.00000000000E+00 -2.40383244320E+02  2.40383244320E+02  0.00000000000E+00  0.0000E+00  9.0
  3000025    2    1    2    0    0  1.21299114060E+02  1.00200478671E+02  1.02264121493E+02  2.46610618272E+02  1.60016360107E+02  4.3973E-13  9.0
 -3000025    2    1    2    0    0 -1.21299114060E+02 -1.00200478671E+02 -9.32743781804E+01  2.43145613674E+02  1.60206332042E+02  4.7346E-12  9.0
        2    1    3    3  500    0  6.31611327050E+01  2.17004339596E+01 -1.99327244361E+01  6.96961335446E+01  3.00000000000E-03  0.0000E+00  9.0
       -1    1    3    3    0  500 -5.89589358895E+00  1.69245629857E+01  3.26031305578E+01  3.72043887281E+01  5.00000000000E-03  0.0000E+00  9.0
  3000022    1    3    3    0    0  6.40338749437E+01  6.15754817251E+01  8.95937153706E+01  1.39710095998E+02  6.00000000000E+01  0.0000E+00  9.0
       -2    1    4    4    0  504 -5.21950779922E+01 -7.66668688974E+01 -1.65210401218E+01  9.42076415629E+01  3.00000000000E-03  0.0000E+00  9.0
        1    1    4    4  504    0 -9.92856374653E+00 -1.37153396232E+01 -6.01488605577E+01  6.24865775222E+01  5.00000000000E-03  0.0000E+00  9.0
  3000022    1    4    4    0    0 -5.91754723209E+01 -9.81827014885E+00 -1.66044775008E+01  8.64513945879E+01  6.00000000000E+01  0.0000E+00  9.0
</event>
<event>
10    1   3.4312288E-02   4.9420000E+02  -1.0000000E+00   9.3620000E-02
       11   -1    0    0    0    0  0.00000000000E+00  0.00000000000E+00  2.45250860950E+02  2.45250860950E+02  0.00000000000E+00  0.0000E+00  9.0
      -11   -1    0    0    0    0  0.00000000000E+00  0.00000000000E+00 -2.48987507360E+02  2.48987507360E+02  0.00000000000E+00  0.0000E+00  9.0
  3000025    2    1    2    0    0 -8.47601480858E+01 -1.28389935231E+02  1.06768470911E+02  2.46309636500E+02  1.60002101486E+02  1.1860E-12  9.0
 -3000025    2    1    2    0    0  8.47601480858E+01  1.28389935231E+02 -1.10505117331E+02  2.47928731807E+02  1.59965674214E+02  2.2242E-12  9.0
        2    1    3    3  500    0 -2.99810844282E+01  1.23141849651E+01  5.89617129956E-01  3.24168510532E+01  3.00000000000E-03  0.0000E+00  9.0
       -1    1    3    3    0  500  1.14434283995E+00 -7.43975414228E+01  1.83352875076E+01  7.66321504545E+01  5.00000000000E-03  0.0000E+00  9.0
  3000022    1    3    3    0    0 -5.59234064975E+01 -6.63065787737E+01  8.78435662732E+01  1.37260634993E+02  6.00000000000E+01  0.0000E+00  9.0
       -4    1    4    4    0  504  5.07728802609E+01  7.10690092014E+01  7.02996702835E-01  8.73575364306E+01  1.46817165330E+00  0.0000E+00  9.0
        3    1    4    4  504    0  3.45007638954E+01  3.18662683433E+01 -6.69731500560E+01  8.17997835934E+01  2.00000000000E-01  0.0000E+00  9.0
  3000022    1    4    4    0    0 -5.13496070582E-01  2.54546576868E+01 -4.42349639774E+01  7.87714117828E+01  6.00000000000E+01  0.0000E+00  9.0
</event>
<event>
10    1   3.4312288E-02   4.9990000E+02  -1.0000000E+00   9.3490000E-02
       11   -1    0    0    0    0  0.00000000000E+00  0.00000000000E+00  2.49871483900E+02  2.49871483900E+02  0.00000000000E+00  0.0000E+00  9.0
      -11   -1    0    0    0    0  0.00000000000E+00  0.00000000000E+00 -2.50000000000E+02  2.50000000000E+02  0.00000000000E+00  0.0000E+00  9.0
  3000025    2    1    2    0    0 -1.68881317068E+02 -8.46396361137E+00  8.90367970356E+01  2.50561842842E+02  1.62052917060E+02  1.3421E-12  9.0
 -3000025    2    1    2    0    0  1.68881317068E+02  8.46396361137E+00 -8.91653131396E+01  2.49309641050E+02  1.60038452000E+02  2.8702E-13  9.0
        4    1    3    3  500    0 -2.41161107502E+00 -1.90061349198E+01  4.39346688885E+01  4.79526817906E+01  1.46817165330E+00  0.0000E+00  9.0
       -3    1    3    3    0  500 -6.42669390407E+01  3.94196929687E+01  2.10848006786E+01  7.82864002689E+01  2.00000000000E-01  0.0000E+00  9.0
  3000022    1    3    3    0    0 -1.02202766952E+02 -2.88775216603E+01  2.40173274686E+01  1.24322760783E+02  6.00000000000E+01  0.0000E+00  9.0
       -4    1    4    4    0  504  1.06542041648E+02 -6.51992553598E+00  1.85720575996E+00  1.06767601869E+02  1.46817165330E+00  0.0000E+00  9.0
        3    1    4    4  504    0 -1.31862492435E+00  2.18765770893E+01 -1.68788126896E+01  2.76632918259E+01  2.00000000000E-01  0.0000E+00  9.0
  3000022    1    4    4    0    0  6.36579003440E+01 -6.89268794221E+00 -7.41437062105E+01  1.14878747355E+02  6.00000000000E+01  0.0000E+00  9.0
</event>
<event>
10    1   3.4312288E-02   4.7090000E+02  -1.0000000E+00   9.4160000E-02
       11   -1    0    0    0    0  0.00000000000E+00  0.00000000000E+00  2.49653986450E+02  2.49653986450E+02  0.00000000000E+00  0.0000E+00  9.0
      -11   -1    0    0    0    0  0.00000000000E+00  0.00000000000E+00 -2.22092746890E+02  2.22092746890E+02  0.00000000000E+00  0.0000E+00  9.0
  3000025    2    1    2    0    0 -1.49395632907E+02  3.62401028944E+01 -6.51860331832E+01  2.31216644182E+02  1.59935979177E+02  2.6063E-13  9.0
 -3000025    2    1    2    0    0  1.49395632907E+02 -3.62401028944E+01  9.27472727452E+01  2.40530089158E+02  1.60063321842E+02  4.4572E-13  9.0
        2    1    3    3  500    0 -5.02750406422E+01  6.21897014365E+01 -1.84871030891E+01  8.20786919119E+01  3.00000000000E-03  0.0000E+00  9.0
       -1    1    3    3    0  500 -7.22849819065E+01 -1.33592005653E+01 -1.47257960202E+01  7.49695667748E+01  5.00000000000E-03  0.0000E+00  9.0
  3000022    1    3    3    0    0 -2.68356103579E+01 -1.25903979769E+01 -3.19731340739E+01  7.41683854955E+01  6.00000000000E+01  0.0000E+00  9.0
       -4    1    4    4    0  504  2.01205730520E+01 -4.73909121879E+01 -1.03178178601E+01  5.25295051503E+01  1.46817165330E+00  0.0000E+00  9.0
        3    1    4    4  504    0  7.14500600464E+01 -3.41481229029E+00  3.61841818399E+01  8.01630029317E+01  2.00000000000E-01  0.0000E+00  9.0
  3000022    1    4    4    0    0  5.78249998091E+01  1.45656215835E+01  6.68809087655E+01  1.07837581076E+02  6.00000000000E+01  0.0000E+00  9.0
</event>
<event>
10    1   3.4312288E-02   5.0000000E+02  -1.0000000E+00   9.3490000E-02
       11   -1    0    0    0    0  0.00000000000E+00  0.00000000000E+00  2.49999983370E+02  2.49999983370E+02  0.00000000000E+00  0.0000E+00  9.0
      -11   -1    0    0    0    0  0.00000000000E+00  0.00000000000E+00 -2.50000000000E+02  2.50000000000E+02  0.00000000000E+00  0.0000E+00  9.0
  3000025    2    1    2    0    0  1.05797000385E+02 -1.51269555876E+02  5.62402359014E+01  2.49304523244E+02  1.57842634767E+02  2.6712E-12  9.0
 -3000025    2    1    2    0    0 -1.05797000385E+02  1.51269555876E+02 -5.62402525334E+01  2.50695460126E+02  1.60030509271E+02  3.9960E-13  9.0
       14    1    3    3    0    0  4.34759119391E+01 -1.22258376827E+02  2.89709160754E+01  1.32953298574E+02  0.00000000000E+00  0.0000E+00  9.0
      -13    1    3    3    0    0  6.82781613392E+00  5.40066241581E+00 -1.55925669741E+01  1.78584866386E+01  1.05700000000E-01  0.0000E+00  9.0
  3000022    1    3    3    0    0  5.54932723127E+01 -3.44118414663E+01  4.28618868010E+01  9.84927380329E+01  6.00000000000E+01  0.0000E+00  9.0
       -4    1    4    4    0  500 -5.23511808388E+01  6.43398090957E+01  1.93978469588E+01  8.51979410803E+01  1.46817165330E+00  0.0000E+00  9.0
        3    1    4    4  500    0  2.06926275861E+01  1.92772510099E+01 -2.61674143336E+01  3.85301286764E+01  2.00000000000E-01  0.0000E+00  9.0
  3000022    1    4    4    0    0 -7.41384471324E+01  6.76524957716E+01 -4.94706851597E+01  1.26967390370E+02  6.00000000000E+01  0.0000E+00  9.0
</event>
<event>
10    1   3.4312288E-02   4.7110000E+02  -1.0000000E+00   9.4150000E-02
       11   -1    0    0    0    0  0.00000000000E+00  0.00000000000E+00  2.24360368260E+02  2.24360368260E+02  0.00000000000E+00  0.0000E+00  9.0
      -11   -1    0    0    0    0  0.00000000000E+00  0.00000000000E+00 -2.47326123870E+02  2.47326123870E+02  0.00000000000E+00  0.0000E+00  9.0
  3000025    2    1    2    0    0  1.16392807644E+02  9.76956824592E+01 -9.49631036961E+01  2.40065497222E+02  1.59755187242E+02  1.1787E-12  9.0
 -3000025    2    1    2    0    0 -1.16392807644E+02 -9.76956824592E+01  7.19973480941E+01  2.31620994911E+02  1.59288841757E+02  7.6483E-13  9.0
        4    1    3    3  500    0  3.42667868140E+01 -1.25305977986E+01 -2.74366227065E+00  3.66184621523E+01  1.46817165330E+00  0.0000E+00  9.0
       -3    1    3    3    0  500  7.36757481509E+01  8.68401550944E+01 -4.21263346187E+01  1.21424859361E+02  2.00000000000E-01  0.0000E+00  9.0
  3000022    1    3    3    0    0  8.45027267878E+00  2.33861251634E+01 -5.00931068063E+01  8.20221757088E+01  6.00000000000E+01  0.0000E+00  9.0
       -2    1    4    4    0  504  1.29128060628E+01 -3.49616362946E+01  3.36608635009E+01  5.02206164183E+01  3.00000000000E-03  0.0000E+00  9.0
        1    1    4    4  504    0 -6.87255195807E+01 -1.10332174532E+01  4.25790010943E+01  8.15959575481E+01  5.00000000000E-03  0.0000E+00  9.0
  3000022    1    4    4    0    0 -6.05800941258E+01 -5.17008287112E+01 -4.24251650109E+00  9.98044209441E+01  6.00000000000E+01  0.0000E+00  9.0
</event>
<event>
10    1   3.4312288E-02   5.0000000E+02  -1.0000000E+00   9.3490000E-02
       11   -1    0    0    0    0  0.00000000000E+00  0.00000000000E+00  2.49999277740E+02  2.49999277740E+02  0.00000000000E+00  0.0000E+00  9.0
      -11   -1    0    0    0    0  0.00000000000E+00  0.00000000000E+00 -2.50000000000E+02  2.50000000000E+02  0.00000000000E+00  0.0000E+00  9.0
  3000025    2    1    2    0    0  8.28517109491E-01  1.90691930934E+02 -2.29244916874E+01  2.49929864399E+02  1.59922812118E+02  1.9278E-12  9.0
 -3000025    2    1    2    0    0 -8.28517109491E-01 -1.90691930934E+02  2.29237694274E+01  2.50069413333E+02  1.60140917058E+02  5.6646E-13  9.0
        4    1    3    3  500    0  3.31153667140E+01  8.32378107445E+01  6.35594608856E+00  8.98204555145E+01  1.46817165330E+00  0.0000E+00  9.0
       -3    1    3    3    0  500 -1.32871890188E+01 -1.36028583011E+01  4.51804655385E+00  1.95458407505E+01  2.00000000000E-01  0.0000E+00  9.0
  3000022    1    3    3    0    0 -1.89996605857E+01  1.21056978492E+02 -3.37984843301E+01  1.40563568135E+02  6.00000000000E+01  0.0000E+00  9.0
       -2    1    4    4    0  504  1.37637813332E+01 -1.07368849684E+02 -1.46397102479E+01  1.09232928571E+02  3.00000000000E-03  0.0000E+00  9.0
        1    1    4    4  504    0 -3.15377110882E+01 -5.10566427032E+01  3.72528711161E+01  7.06341589898E+01  5.00000000000E-03  0.0000E+00  9.0
  3000022    1    4    4    0    0  1.69454126465E+01 -3.22664385477E+01  3.10608559389E-01  7.02023257734E+01  6.00000000000E+01  0.0000E+00  9.0
</event>
<event>
10    1   3.4312288E-02   4.6850000E+02  -1.0000000E+00   9.4220000E-02
       11   -1    0    0    0    0  0.00000000000E+00  0.00000000000E+00  2.20328871360E+02  2.20328871360E+02  0.00000000000E+00  0.0000E+00  9.0
      -11   -1    0    0    0    0  0.00000000000E+00  0.00000000000E+00 -2.49097374710E+02  2.49097374710E+02  0.00000000000E+00  0.0000E+00  9.0
  3000025    2    1    2    0    0  1.17715203266E+02 -7.39661863986E+01 -1.14277329255E+02  2.40734151919E+02  1.59892958282E+02  1.9730E-12  9.0
 -3000025    2    1    2    0    0 -1.17715203266E+02  7.39661863986E+01  8.55088259099E+01  2.28692094143E+02  1.60188791133E+02  9.7241E-13  9.0
        4    1    3    3  500    0  4.39271061224E+01  2.11899542882E+01  1.04627781330E+01  4.99022050544E+01  1.46817165330E+00  0.0000E+00  9.0
       -3    1    3    3    0  500  8.19640469445E+00 -3.75801848179E+01 -3.11940641476E+01  4.95233377197E+01  2.00000000000E-01  0.0000E+00  9.0
  3000022    1    3    3    0    0  6.55916924477E+01 -5.75759558677E+01 -9.35460432398E+01  1.41308609143E+02  6.00000000000E+01  0.0000E+00  9.0
       -4    1    4    4    0  504 -9.07727588052E+01  1.42413759334E+01  3.24099630211E+01  9.74426588338E+01  1.46817165330E+00  0.0000E+00  9.0
        3    1    4    4  504    0  8.51792013254E+00 -1.10961350979E+01 -6.45353858832E+00  1.54067302763E+01  2.00000000000E-01  0.0000E+00  9.0
  3000022    1    4    4    0    0 -3.54603645918E+01  7.08209455629E+01  5.95524014771E+01  1.15842705032E+02  6.00000000000E+01  0.0000E+00  9.0
</event>
<event>
10    1   3.4312288E-02   4.6690000E+02  -1.0000000E+00   9.4260000E-02
       11   -1    0    0    0    0  0.00000000000E+00  0.00000000000E+00  2.49786249390E+02  2.49786249390E+02  0.00000000000E+00  0.0000E+00  9.0
      -11   -1    0    0    0    0  0.00000000000E+00  0.00000000000E+00 -2.18140160710E+02  2.18140160710E+02  0.00000000000E+00  0.0000E+00  9.0
  3000025    2    1    2    0    0  1.61021235017E+02  1.82304589981E+01  6.98486734490E+01  2.37080498894E+02  1.58329207702E+02  2.7421E-13  9.0
 -3000025    2    1    2    0    0 -1.61021235017E+02 -1.82304589981E+01 -3.82025847600E+01  2.30845911203E+02  1.59906877511E+02  2.8618E-12  9.0
       14    1    3    3    0    0  3.75183588484E+01  1.81588315547E+01  5.94243099853E+01  7.25852535391E+01  0.00000000000E+00  0.0000E+00  9.0
      -13    1    3    3    0    0 -7.32664991020E-01 -3.76269850538E+00 -2.23186937312E+01  2.26457492786E+01  1.05700000000E-01  0.0000E+00  9.0
  3000022    1    3    3    0    0  1.24235541158E+02  3.83432594914E+00  3.27430571947E+01  1.41849496075E+02  6.00000000000E+01  0.0000E+00  9.0
       -4    1    4    4    0  500  7.54473324553E+00 -1.46912489879E+01 -2.51445064800E+01  3.01190559396E+01  1.46817165330E+00  0.0000E+00  9.0
        3    1    4    4  500    0 -1.01272381916E+02  1.33494359534E+01 -3.20435629865E+01  1.07056679886E+02  2.00000000000E-01  0.0000E+00  9.0
  3000022    1    4    4    0    0 -6.72935863453E+01 -1.68886459636E+01  1.89854847066E+01  9.36701753775E+01  6.00000000000E+01  0.0000E+00  9.0
</event>
<event>
10    1   3.4312288E-02   4.9930000E+02  -1.0000000E+00   9.3510000E-02
       11   -1    0    0    0    0  0.00000000000E+00  0.00000000000E+00  2.49999997960E+02  2.49999997960E+02  0.00000000000E+00  0.0000E+00  9.0
      -11   -1    0    0    0    0  0.00000000000E+00  0.00000000000E+00 -2.49338195860E+02  2.49338195860E+02  0.00000000000E+00  0.0000E+00  9.0
  3000025    2    1    2    0    0  4.49337951929E+01 -1.41951679382E+02  1.20725191558E+02  2.50070971300E+02  1.60597613870E+02  2.0721E-13  9.0
 -3000025    2    1    2    0    0 -4.49337951929E+01  1.41951679382E+02 -1.20063389458E+02  2.49267222518E+02  1.59842439621E+02  3.7646E-12  9.0
        2    1    3    3  500    0 -6.79443363986E+00  1.45647087204E+01  2.03861358414E+01  2.59593838937E+01  3.00000000000E-03  0.0000E+00  9.0
       -1    1    3    3    0  500  1.42513195256E+01 -9.76105156508E+01  8.61488725942E+01  1.30967710326E+02  5.00000000000E-03  0.0000E+00  9.0
  3000022    1    3    3    0    0  3.74769093077E+01 -5.89058724514E+01  1.41901831219E+01  9.31438770803E+01  6.00000000000E+01  0.0000E+00  9.0
       -2    1    4    4    0  504 -2.55371992791E+01  1.04897624685E+02 -3.54309473213E+01  1.13626635296E+02  3.00000000000E-03  0.0000E+00  9.0
        1    1    4    4  504    0 -3.12660990481E+01 -3.00067404961E+00 -1.55258986803E+01  3.50375020409E+01  5.00000000000E-03  0.0000E+00  9.0
  3000022    1    4    4    0    0  1.18695031342E+01  4.00547287464E+01 -6.91065434560E+01  1.00603085182E+02  6.00000000000E+01  0.0000E+00  9.0
</event>
<event>
10    1   3.4312288E-02   5.0000000E+02  -1.0000000E+00   9.3490000E-02
       11   -1    0    0    0    0  0.00000000000E+00  0.00000000000E+00  2.49999997900E+02  2.49999997900E+02  0.00000000000E+00  0.0000E+00  9.0
      -11   -1    0    0    0    0  0.00000000000E+00  0.00000000000E+00 -2.50000000000E+02  2.50000000000E+02  0.00000000000E+00  0.0000E+00  9.0
  3000025    2    1    2    0    0 -1.36256880721E+02 -1.24943884318E+02 -5.20555851296E+01  2.49954426523E+02  1.59970371079E+02  1.0646E-13  9.0
 -3000025    2    1    2    0    0  1.36256880721E+02  1.24943884318E+02  5.20555830306E+01  2.50045571383E+02  1.60112748622E+02  9.4027E-13  9.0
        4    1    3    3  500    0 -2.53136002943E+01  2.14616986754E+01 -2.45382962090E+00  3.33100537031E+01  1.46817165330E+00  0.0000E+00  9.0
       -3    1    3    3    0  500 -1.80801727362E+01 -6.56805187195E+01  7.05614744968E+00  6.84883377099E+01  2.00000000000E-01  0.0000E+00  9.0
  3000022    1    3    3    0    0 -9.28631076905E+01 -8.07250642736E+01 -5.66579029586E+01  1.48156035110E+02  6.00000000000E+01  0.0000E+00  9.0
       -2    1    4    4    0  504  2.11858677061E+01  2.18014968151E+01 -2.74632873246E+01  4.09680169585E+01  3.00000000000E-03  0.0000E+00  9.0
        1    1    4    4  504    0  6.47234263819E+01  9.41282226588E+01  5.26484837184E+01  1.25781982360E+02  5.00000000000E-03  0.0000E+00  9.0
  3000022    1    4    4    0    0  5.03475866329E+01  9.01416484467E+00  2.68703866363E+01  8.32955720647E+01  6.00000000000E+01  0.0000E+00  9.0
</event>
<event>
10    1   3.4312288E-02   4.9910000E+02  -1.0000000E+00   9.3510000E-02
       11   -1    0    0    0    0  0.00000000000E+00  0.00000000000E+00  2.49999999470E+02  2.49999999470E+02  0.00000000000E+00  0.0000E+00  9.0
      -11   -1    0    0    0    0  0.00000000000E+00  0.00000000000E+00 -2.49073623150E+02  2.49073623150E+02  0.00000000000E+00  0.0000E+00  9.0
  3000025    2    1    2    0    0 -1.53582507206E+02 -8.98967689099E+01  7.07016161244E+01  2.49572680618E+02  1.60058704256E+02  3.8703E-13  9.0
 -3000025    2    1    2    0    0  1.53582507206E+02  8.98967689099E+01 -6.97752398014E+01  2.49500941998E+02  1.60353111564E+02  3.4147E-14  9.0
        2    1    3    3  500    0 -4.22164292134E+01 -3.49586633717E+01  2.43542332290E+01  5.99788606547E+01  3.00000000000E-03  0.0000E+00  9.0
       -1    1    3    3    0  500  1.24256773995E+01 -2.72832712311E+01 -1.82744585481E+01  3.51102578762E+01  5.00000000000E-03  0.0000E+00  9.0
  3000022    1    3    3    0    0 -1.23791755392E+02 -2.76548343070E+01  6.46218414435E+01  1.54483562087E+02  6.00000000000E+01  0.0000E+00  9.0
       -4    1    4    4    0  504  4.80661345315E+01  6.45639604410E+01 -2.63303824193E+00  8.05477913727E+01  1.46817165330E+00  0.0000E+00  9.0
        3    1    4    4  504    0  6.72412693165E+01 -8.45510306157E+00 -3.82217387225E+00  6.78787601551E+01  2.00000000000E-01  0.0000E+00  9.0
  3000022    1    4    4    0    0  3.82751033576E+01  3.37879115294E+01 -6.33200276860E+01  1.01074390469E+02  6.00000000000E+01  0.0000E+00  9.0
</event>
<event>
10    1   3.4312288E-02   4.8280000E+02  -1.0000000E+00   9.3880000E-02
       11   -1    0    0    0    0  0.00000000000E+00  0.00000000000E+00  2.50000000000E+02  2.50000000000E+02  0.00000000000E+00  0.0000E+00  9.0
      -11   -1    0    0    0    0  0.00000000000E+00  0.00000000000E+00 -2.33127152170E+02  2.33127152170E+02  0.00000000000E+00  0.0000E+00  9.0
  3000025    2    1    2    0    0 -1.69734145994E+02  5.63855306373E+01 -1.73898235188E+01  2.40649535740E+02  1.60064939035E+02  9.8731E-13  9.0
 -3000025    2    1    2    0    0  1.69734145994E+02 -5.63855306373E+01  3.42626713488E+01  2.42477616430E+02  1.60101391125E+02  2.0403E-13  9.0
        2    1    3    3  500    0 -1.71479174292E+01  3.66394507107E+01  2.51089408356E+01  4.76125964365E+01  3.00000000000E-03  0.0000E+00  9.0
       -1    1    3    3    0  500 -4.47367923436E+01  2.57234017166E+01 -4.64243953793E+01  6.94139647074E+01  5.00000000000E-03  0.0000E+00  9.0
  3000022    1    3    3    0    0 -1.07849436221E+02 -5.97732178939E+00  3.92563102482E+00  1.23622974596E+02  6.00000000000E+01  0.0000E+00  9.0
       -4    1    4    4    0  504  2.85408426410E+01 -3.27633453508E+01 -2.96470364735E+01  5.26224172468E+01  1.46817165330E+00  0.0000E+00  9.0
        3    1    4    4  504    0  9.14461093818E+01 -3.70420342387E+01  4.55164411759E+01  1.08656751465E+02  2.00000000000E-01  0.0000E+00  9.0
  3000022    1    4    4    0    0  4.97471939710E+01  1.34198489521E+01  1.83932666469E+01  8.11984477181E+01  6.00000000000E+01  0.0000E+00  9.0
</event>
<event>
10    1   3.4312288E-02   5.0000000E+02  -1.0000000E+00   9.3490000E-02
       11   -1    0    0    0    0  0.00000000000E+00  0.00000000000E+00  2.49999963870E+02  2.49999963870E+02  0.00000000000E+00  0.0000E+00  9.0
      -11   -1    0    0    0    0  0.00000000000E+00  0.00000000000E+00 -2.50000000000E+02  2.50000000000E+02  0.00000000000E+00  0.0000E+00  9.0
  3000025    2    1    2    0    0  7.57447694588E+01 -1.57698672833E+02 -7.96007672865E+01  2.49948206148E+02  1.59786363906E+02  2.6720E-13  9.0
 -3000025    2    1    2    0    0 -7.57447694588E+01  1.57698672833E+02  7.96007311545E+01  2.50051757720E+02  1.59948315480E+02  1.3745E-13  9.0
        2    1    3    3  500    0  4.15581255136E+01 -8.63263430467E+01 -8.29447744146E+01  1.26724705215E+02  3.00000000000E-03  0.0000E+00  9.0
       -1    1    3    3    0  500  3.77153220298E+01 -3.25977426593E+01  1.17186611967E+01  5.12092314679E+01  5.00000000000E-03  0.0000E+00  9.0
  3000022    1    3    3    0    0 -3.52867808453E+00 -3.87745871273E+01 -8.37465406859E+00  7.20142694657E+01  6.00000000000E+01  0.0000E+00  9.0
      -14    1    4    4    0    0  2.36904424611E+01  5.20729514511E+01  1.64162142380E+01  5.95174044019E+01  0.00000000000E+00  0.0000E+00  9.0
       13    1    4    4    0    0 -3.58063182608E+01 -3.22380504397E+00 -2.87329077392E+00  3.60659440292E+01  1.05700000000E-01  0.0000E+00  9.0
  3000022    1    4    4    0    0 -6.36288936591E+01  1.08849526426E+02  6.60578076901E+01  1.54468409289E+02  6.00000000000E+01  0.0000E+00  9.0
</event>
<event>
10    1   3.4312288E-02   4.9840000E+02  -1.0000000E+00   9.3530000E-02
       11   -1    0    0    0    0  0.00000000000E+00  0.00000000000E+00  2.48371074460E+02  2.48371074460E+02  0.00000000000E+00  0.0000E+00  9.0
      -11   -1    0    0    0    0  0.00000000000E+00  0.00000000000E+00 -2.49999999970E+02  2.49999999970E+02  0.00000000000E+00  0.0000E+00  9.0
  3000025    2    1    2    0    0 -1.55581471131E+02 -6.43698838670E+01  8.94732288813E+01  2.48883542689E+02  1.59964005409E+02  4.4943E-12  9.0
 -3000025    2    1    2    0    0  1.55581471131E+02  6.43698838670E+01 -9.11021543933E+01  2.49487531753E+02  1.59985467642E+02  9.2681E-14  9.0
        4    1    3    3  500    0 -9.05527473182E+01 -3.61613816124E+01  4.83537775219E+01  1.08847089514E+02  1.46817165330E+00  0.0000E+00  9.0
       -3    1    3    3    0  500  1.32176739737E+01 -2.64117730570E+01  2.77296930781E+01  4.05125232428E+01  2.00000000000E-01  0.0000E+00  9.0
  3000022    1    3    3    0    0 -7.82463977853E+01 -1.79672919746E+00  1.33897582813E+01  9.95239299315E+01  6.00000000000E+01  0.0000E+00  9.0
       -4    1    4    4    0  504  3.85175789004E+01  1.69930772626E+01  3.02432341883E+01  5.18572781910E+01  1.46817165330E+00  0.0000E+00  9.0
        3    1    4    4  504    0  8.28378183436E+00  1.91568772665E+01 -4.37247953828E+01  4.84510548838E+01  2.00000000000E-01  0.0000E+00  9.0
  3000022    1    4    4    0    0  1.08780110396E+02  2.82199293379E+01 -7.76205931988E+01  1.49179198678E+02  6.00000000000E+01  0.0000E+00  9.0
</event>
<event>
10    1   3.4312288E-02   4.9480000E+02  -1.0000000E+00   9.3610000E-02
       11   -1    0    0    0    0  0.00000000000E+00  0.00000000000E+00  2.44893097580E+02  2.44893097580E+02  0.00000000000E+00  0.0000E+00  9.0
      -11   -1    0    0    0    0  0.00000000000E+00  0.00000000000E+00 -2.49924613350E+02  2.49924613350E+02  0.00000000000E+00  0.0000E+00  9.0
  3000025    2    1    2    0    0  1.85672654623E+02  3.12397886397E+01 -1.43309076422E+01  2.47490639885E+02  1.59987445907E+02  7.1923E-13  9.0
 -3000025    2    1    2    0    0 -1.85672654623E+02 -3.12397886397E+01  9.29939186770E+00  2.47327071045E+02  1.60106034595E+02  3.4705E-13  9.0
       14    1    3    3    0    0  8.44704625226E+01  2.25970588793E+01 -4.67306902573E+01  9.91445587044E+01  0.00000000000E+00  0.0000E+00  9.0
      -13    1    3    3    0    0  6.15556758478E+01 -2.07341573649E+01  2.74136195336E+01  7.05019447898E+01  1.05700000000E-01  0.0000E+00  9.0
  3000022    1    3    3    0    0  3.96465162517E+01  2.93768871252E+01  4.98616308146E+00  7.78441363902E+01  6.00000000000E+01  0.0000E+00  9.0
       -4    1    4    4    0  500 -6.02078434545E+01  4.92366577693E+00  2.94643857898E+01  6.72274680179E+01  1.46817165330E+00  0.0000E+00  9.0
        3    1    4    4  500    0 -2.58318590776E+00 -4.18582470521E+01 -1.48494044313E+00  4.19646368247E+01  2.00000000000E-01  0.0000E+00  9.0
  3000022    1    4    4    0    0 -1.22881625259E+02  5.69479263561E+00 -1.86800534791E+01  1.38134966201E+02  6.00000000000E+01  0.0000E+00  9.0
</event>
<event>
10    1   3.4312288E-02   4.6640000E+02  -1.0000000E+00   9.4270000E-02
       11   -1    0    0    0    0  0.00000000000E+00  0.00000000000E+00  2.22656795600E+02  2.22656795600E+02  0.00000000000E+00  0.0000E+00  9.0
      -11   -1    0    0    0    0  0.00000000000E+00  0.00000000000E+00 -2.44202965730E+02  2.44202965730E+02  0.00000000000E+00  0.0000E+00  9.0
  3000025    2    1    2    0    0 -1.55313497561E+02  2.36718391428E+01  5.38662218403E+01  2.30237102644E+02  1.59451920920E+02  2.8905E-12  9.0
 -3000025    2    1    2    0    0  1.55313497561E+02 -2.36718391428E+01 -7.54123919673E+01  2.36622658678E+02  1.60064409674E+02  1.6599E-12  9.0
        4    1    3    3  500    0  8.86128946584E+00  7.68952701522E+00  3.11729285498E+01  3.33400401782E+01  1.46817165330E+00  0.0000E+00  9.0
       -3    1    3    3    0  500 -6.99602410133E+01 -2.52605242570E+01  2.29053968939E+01  7.78281865088E+01  2.00000000000E-01  0.0000E+00  9.0
  3000022    1    3    3    0    0 -9.42145460139E+01  4.12428363840E+01 -2.12103603374E-01  1.19068875956E+02  6.00000000000E+01  0.0000E+00  9.0
       -2    1    4    4    0  504 -2.16908338546E+01 -9.75813167281E+00 -7.33107809201E+00  2.48889156462E+01  3.00000000000E-03  0.0000E+00  9.0
        1    1    4    4  504    0  6.39763759336E+01  1.56607571851E+01 -5.06606594020E+00  6.60598292635E+01  5.00000000000E-03  0.0000E+00  9.0
  3000022    1    4    4    0    0  1.13027955484E+02 -2.95744646550E+01 -6.30152479348E+01  1.45673913769E+02  6.00000000000E+01  0.0000E+00  9.0
</event>
<event>
10    1   3.4312288E-02   4.8070000E+02  -1.0000000E+00   9.3930000E-02
       11   -1    0    0    0    0  0.00000000000E+00  0.00000000000E+00  2.32609250590E+02  2.32609250590E+02  0.00000000000E+00  0.0000E+00  9.0
      -11   -1    0    0    0    0  0.00000000000E+00  0.00000000000E+00 -2.48370390830E+02  2.48370390830E+02  0.00000000000E+00  0.0000E+00  9.0
  3000025    2    1    2    0    0  1.08570390195E+02  1.16250225408E+02  7.49944646395E+01  2.37782407358E+02  1.60045802781E+02  1.0033E-12  9.0
 -3000025    2    1    2    0    0 -1.08570390195E+02 -1.16250225408E+02 -9.07556048775E+01  2.43197234066E+02  1.60020843349E+02  1.5568E-12  9.0
        4    1    3    3  500    0  4.54238066826E+01  9.08396574881E+01  5.55841028482E+01  1.15788227396E+02  1.46817165330E+00  0.0000E+00  9.0
       -3    1    3    3    0  500  4.75199245853E+01  5.55705182520E+00 -1.25597742819E+01  4.94652604116E+01  2.00000000000E-01  0.0000E+00  9.0
  3000022    1    3    3    0    0  1.56266589268E+01  1.98535160945E+01  3.19701360729E+01  7.25289195497E+01  6.00000000000E+01  0.0000E+00  9.0
       -4    1    4    4    0  504  3.95963809376E+00 -3.45582926573E+01  6.30295361093E+00  3.53813097192E+01  1.46817165330E+00  0.0000E+00  9.0
        3    1    4    4  504    0 -3.50846150740E+01  9.16225451357E+00 -5.83670818730E+01  6.87141424238E+01  2.00000000000E-01  0.0000E+00  9.0
  3000022    1    4    4    0    0 -7.74454132155E+01 -9.08541872642E+01 -3.86914766154E+01  1.39101781923E+02  6.00000000000E+01  0.0000E+00  9.0
</event>
<event>
10    1   3.4312288E-02   4.9170000E+02  -1.0000000E+00   9.3680000E-02
       11   -1    0    0    0    0  0.00000000000E+00  0.00000000000E+00  2.49999928980E+02  2.49999928980E+02  0.00000000000E+00  0.0000E+00  9.0
      -11   -1    0    0    0    0  0.00000000000E+00  0.00000000000E+00 -2.41775282400E+02  2.41775282400E+02  0.00000000000E+00  0.0000E+00  9.0
  3000025    2    1    2    0    0 -1.50896099390E+02 -1.04759015382E+02 -2.91437140941E+01  2.45346652690E+02  1.60004811803E+02  9.2728E-12  9.0
 -3000025    2    1    2    0    0  1.50896099390E+02  1.04759015382E+02  3.73683606681E+01  2.46428558683E+02  1.59957982110E+02  1.9149E-12  9.0
       14    1    3    3    0    0 -2.72656405285E+01 -2.02365854407E+01 -5.23048357606E+01  6.23596855963E+01  0.00000000000E+00  0.0000E+00  9.0
      -13    1    3    3    0    0 -9.13507885901E+01 -4.06611274334E+01  6.07721588861E+00  1.00176032990E+02  1.05700000000E-01  0.0000E+00  9.0
  3000022    1    3    3    0    0 -3.22796702711E+01 -4.38613025080E+01  1.70839057778E+01  8.28109341038E+01  6.00000000000E+01  0.0000E+00  9.0
       -2    1    4    4    0  500  6.96749715957E+01  3.47340340927E+00  5.33753162590E+01  8.78384345993E+01  3.00000000000E-03  0.0000E+00  9.0
        1    1    4    4  500    0 -4.02197685492E+00  3.27948004650E+01 -2.60787962452E+00  3.31432692488E+01  5.00000000000E-03  0.0000E+00  9.0
  3000022    1    4    4    0    0  8.52431046489E+01  6.84908115078E+01 -1.33990759664E+01  1.25446854835E+02  6.00000000000E+01  0.0000E+00  9.0
</event>
<event>
10    1   3.4312288E-02   4.7750000E+02  -1.0000000E+00   9.4000000E-02
       11   -1    0    0    0    0  0.00000000000E+00  0.00000000000E+00  2.48343057650E+02  2.48343057650E+02  0.00000000000E+00  0.0000E+00  9.0
      -11   -1    0    0    0    0  0.00000000000E+00  0.00000000000E+00 -2.29492418640E+02  2.29492418640E+02  0.00000000000E+00  0.0000E+00  9.0
  3000025    2    1    2    0    0  4.29870684835E+01 -1.21177455545E+02  1.31002498367E+02  2.43606419746E+02  1.60157951330E+02  1.4393E-12  9.0
 -3000025    2    1    2    0    0 -4.29870684835E+01  1.21177455545E+02 -1.12151859357E+02  2.34229056553E+02  1.60478495717E+02  1.1820E-14  9.0
        2    1    3    3  500    0 -1.32627600406E+00 -3.78651779337E+01 -1.07930689841E+01  3.93956984338E+01  3.00000000000E-03  0.0000E+00  9.0
       -1    1    3    3    0  500 -1.60325312144E+01 -3.00687477402E+01  7.84025966695E+01  8.54876531279E+01  5.00000000000E-03  0.0000E+00  9.0
  3000022    1    3    3    0    0  6.03458757028E+01 -5.32435298704E+01  6.33929706815E+01  1.18723068185E+02  6.00000000000E+01  0.0000E+00  9.0
       -4    1    4    4    0  504 -3.85050379048E+01  5.82401798086E+01 -5.43454622512E+01  8.84880855454E+01  1.46817165330E+00  0.0000E+00  9.0
        3    1    4    4  504    0  2.68374174108E+00 -2.42274482090E+01 -2.45289392727E+01  3.45815063046E+01  2.00000000000E-01  0.0000E+00  9.0
  3000022    1    4    4    0    0 -7.16577231973E+00  8.71647239437E+01 -3.32774578329E+01  1.11159464703E+02  6.00000000000E+01  0.0000E+00  9.0
</event>
<event>
10    1   3.4312288E-02   4.9360000E+02  -1.0000000E+00   9.3630000E-02
       11   -1    0    0    0    0  0.00000000000E+00  0.00000000000E+00  2.48489743310E+02  2.48489743310E+02  0.00000000000E+00  0.0000E+00  9.0
      -11   -1    0    0    0    0  0.00000000000E+00  0.00000000000E+00 -2.45120792510E+02  2.45120792510E+02  0.00000000000E+00  0.0000E+00  9.0
  3000025    2    1    2    0    0 -1.18881633366E+02  9.69387698335E+01 -1.06019450197E+02  2.46536725984E+02  1.61276984069E+02  2.5921E-12  9.0
 -3000025    2    1    2    0    0  1.18881633366E+02 -9.69387698335E+01  1.09388400997E+02  2.47073809839E+02  1.59842664478E+02  1.4794E-13  9.0
        4    1    3    3  500    0 -5.42499039306E+01  1.16935465034E+01  1.08208297485E+01  5.65600299749E+01  1.46817165330E+00  0.0000E+00  9.0
       -3    1    3    3    0  500 -5.80434826260E+00 -1.53753128128E+00 -5.30156733089E+01  5.33550004929E+01  2.00000000000E-01  0.0000E+00  9.0
  3000022    1    3    3    0    0 -5.88273811721E+01  8.67827546112E+01 -6.38246066355E+01  1.36621695516E+02  6.00000000000E+01  0.0000E+00  9.0
       -4    1    4    4    0  504  1.60272767434E+01 -2.96111574461E+01 -2.04329580833E+01  3.94126318475E+01  1.46817165330E+00  0.0000E+00  9.0
        3    1    4    4  504    0  1.18541423516E+01 -4.39796282302E+01  6.28413009140E+01  7.76131270516E+01  2.00000000000E-01  0.0000E+00  9.0
  3000022    1    4    4    0    0  9.10002142703E+01 -2.33479841572E+01  6.69800581658E+01  1.30048050940E+02  6.00000000000E+01  0.0000E+00  9.0
</event>
<event>
10    1   3.4312288E-02   4.9950000E+02  -1.0000000E+00   9.3500000E-02
       11   -1    0    0    0    0  0.00000000000E+00  0.00000000000E+00  2.50000000000E+02  2.50000000000E+02  0.00000000000E+00  0.0000E+00  9.0
      -11   -1    0    0    0    0  0.00000000000E+00  0.00000000000E+00 -2.49480936530E+02  2.49480936530E+02  0.00000000000E+00  0.0000E+00  9.0
  3000025    2    1    2    0    0  1.16780024767E+01 -1.83654431445E+02 -5.36334877201E+01  2.49701355465E+02  1.60027778792E+02  4.9495E-12  9.0
 -3000025    2    1    2    0    0 -1.16780024767E+01  1.83654431445E+02  5.41525511891E+01  2.49779581071E+02  1.59975043018E+02  4.3762E-13  9.0
        4    1    3    3  500    0  1.55762452145E+00 -1.55854337554E+01  3.37157111514E+01  3.72053308807E+01  1.46817165330E+00  0.0000E+00  9.0
       -3    1    3    3    0  500  3.17929088782E+00 -2.60285862579E+01 -4.55967528436E+01  5.25994207479E+01  2.00000000000E-01  0.0000E+00  9.0
  3000022    1    3    3    0    0  6.94108706747E+00 -1.42040411431E+02 -4.17524460280E+01  1.59896603837E+02  6.00000000000E+01  0.0000E+00  9.0
       -2    1    4    4    0  504  2.23617781899E+01  2.28418475545E+00 -1.45756802094E+01  2.67902423725E+01  3.00000000000E-03  0.0000E+00  9.0
        1    1    4    4  504    0 -3.26937848418E+00  1.17474720064E+02  2.42533687913E+01  1.19996769175E+02  5.00000000000E-03  0.0000E+00  9.0
  3000022    1    4    4    0    0 -3.07704021820E+01  6.38955266255E+01  4.44748626067E+01  1.02992569524E+02  6.00000000000E+01  0.0000E+00  9.0
</event>
<event>
10    1   3.4312288E-02   4.9960000E+02  -1.0000000E+00   9.3500000E-02
       11   -1    0    0    0    0  0.00000000000E+00  0.00000000000E+00  2.49567694410E+02  2.49567694410E+02  0.00000000000E+00  0.0000E+00  9.0
      -11   -1    0    0    0    0  0.00000000000E+00  0.00000000000E+00 -2.50000000000E+02  2.50000000000E+02  0.00000000000E+00  0.0000E+00  9.0
  3000025    2    1    2    0    0 -1.90390583648E+02  1.43956104322E+01 -2.19164657377E+01  2.50066595940E+02  1.59991134108E+02  1.8331E-13  9.0
 -3000025    2    1    2    0    0  1.90390583648E+02 -1.43956104322E+01  2.14841601507E+01  2.49501098480E+02  1.59164760748E+02  1.9132E-12  9.0
       14    1    3    3    0    0 -3.09055661126E+01 -2.66204614468E+01  2.39445569855E+01  4.72984650239E+01  0.00000000000E+00  0.0000E+00  9.0
      -13    1    3    3    0    0 -5.93928185152E+01  1.98701569896E+00 -5.28373153378E+01  7.95188542873E+01  1.05700000000E-01  0.0000E+00  9.0
  3000022    1    3    3    0    0 -1.00092199019E+02  3.90290561801E+01  6.97629261458E+00  1.23249276629E+02  6.00000000000E+01  0.0000E+00  9.0
       -4    1    4    4    0  500  8.92379329457E-01  1.97592037201E+01  3.29967512931E+01  3.84988778593E+01  1.46817165330E+00  0.0000E+00  9.0
        3    1    4    4  500    0  4.78103955360E+01 -1.76006149679E+01 -2.28380463316E+01  5.58321764648E+01  2.00000000000E-01  0.0000E+00  9.0
  3000022    1    4    4    0    0  1.41687808782E+02 -1.65541991846E+01  1.13254551893E+01  1.55170044156E+02  6.00000000000E+01  0.0000E+00  9.0
</event>
<event>
10    1   3.4312288E-02   4.8600000E+02  -1.0000000E+00   9.3810000E-02
       11   -1    0    0    0    0  0.00000000000E+00  0.00000000000E+00  2.36246184040E+02  2.36246184040E+02  0.00000000000E+00  0.0000E+00  9.0
      -11   -1    0    0    0    0  0.00000000000E+00  0.00000000000E+00 -2.49921826450E+02  2.49921826450E+02  0.00000000000E+00  0.0000E+00  9.0
  3000025    2    1    2    0    0  4.67785002927E+01  1.28675135118E+02  1.14111731954E+02  2.39675422458E+02  1.60241387517E+02  1.4271E-13  9.0
 -3000025    2    1    2    0    0 -4.67785002927E+01 -1.28675135118E+02 -1.27787374364E+02  2.46492588031E+02  1.60260614063E+02  1.3524E-12  9.0
        4    1    3    3  500    0  4.52668275680E+01  5.37643946166E+01  8.28314930315E+01  1.08641187274E+02  1.46817165330E+00  0.0000E+00  9.0
       -3    1    3    3    0  500 -2.68487216512E+01  2.72954181492E-01  1.15447682261E+01  2.92275560334E+01  2.00000000000E-01  0.0000E+00  9.0
  3000022    1    3    3    0    0  2.83603943755E+01  7.46377863205E+01  1.97354706970E+01  1.01806679150E+02  6.00000000000E+01  0.0000E+00  9.0
       -2    1    4    4    0  504 -2.72350165032E+01 -1.09644006354E+01 -1.75191120714E+01  3.41889382987E+01  3.00000000000E-03  0.0000E+00  9.0
        1    1    4    4  504    0  4.19943187490E+01 -2.43019928351E+01 -5.64401466695E+01  7.44284881213E+01  5.00000000000E-03  0.0000E+00  9.0
  3000022    1    4    4    0    0 -6.15378025396E+01 -9.34087416487E+01 -5.38281156234E+01  1.37875161611E+02  6.00000000000E+01  0.0000E+00  9.0
</event>
<event>
10    1   3.4312288E-02   4.2980000E+02  -1.0000000E+00   9.5200000E-02
       11   -1    0    0    0    0  0.00000000000E+00  0.00000000000E+00  2.49985768450E+02  2.49985768450E+02  0.00000000000E+00  0.0000E+00  9.0
      -11   -1    0    0    0    0  0.00000000000E+00  0.00000000000E+00 -1.84728215370E+02  1.84728215370E+02  0.00000000000E+00  0.0000E+00  9.0
  3000025    2    1    2    0    0 -1.34201233798E+02  1.14442675212E+01  8.19369327424E+01  2.24696774811E+02  1.60106331078E+02  6.8134E-13  9.0
 -3000025    2    1    2    0    0  1.34201233798E+02 -1.14442675212E+01 -1.66793796564E+01  2.10017209013E+02  1.60275026015E+02  6.2532E-13  9.0
       14    1    3    3    0    0 -7.91509189335E+01 -1.23041816067E+01  4.64745398374E+01  9.26074711140E+01  0.00000000000E+00  0.0000E+00  9.0
      -13    1    3    3    0    0 -2.56682230234E+00  3.66389659988E+01  3.58682251684E+01  5.13375413846E+01  1.05700000000E-01  0.0000E+00  9.0
  3000022    1    3    3    0    0 -5.24834925612E+01 -1.28905168709E+01 -4.05832263574E-01  8.07517623117E+01  6.00000000000E+01  0.0000E+00  9.0
       -2    1    4    4    0  500  8.09004399231E+01 -2.77550364327E+00  2.86073051407E+01  8.58543098315E+01  3.00000000000E-03  0.0000E+00  9.0
        1    1    4    4  500    0  3.79060444323E+00 -3.36837724571E+01 -1.33428235740E+01  3.64279586981E+01  5.00000000000E-03  0.0000E+00  9.0
  3000022    1    4    4    0    0  4.95101894317E+01  2.50150085800E+01 -3.19438612238E+01  8.77349404839E+01  6.00000000000E+01  0.0000E+00  9.0
</event>
<event>
10    1   3.4312288E-02   4.8180000E+02  -1.0000000E+00   9.3900000E-02
       11   -1    0    0    0    0  0.00000000000E+00  0.00000000000E+00  2.36121381000E+02  2.36121381000E+02  0.00000000000E+00  0.0000E+00  9.0
      -11   -1    0    0    0    0  0.00000000000E+00  0.00000000000E+00 -2.45782260820E+02  2.45782260820E+02  0.00000000000E+00  0.0000E+00  9.0
  3000025    2    1    2    0    0 -1.19946473601E+02  4.58969508038E+01 -1.31190698618E+02  2.43460928016E+02  1.59901649285E+02  1.7144E-12  9.0
 -3000025    2    1    2    0    0  1.19946473601E+02 -4.58969508038E+01  1.21529818798E+02  2.38442713798E+02  1.59974198806E+02  2.7921E-14  9.0
        4    1    3    3  500    0 -3.38846987405E+01  7.05329968655E+01 -5.01548031120E+01  9.29555606662E+01  1.46817165330E+00  0.0000E+00  9.0
       -3    1    3    3    0  500 -5.39948726787E+01 -4.75310664682E+00 -4.75979468543E+01  7.21362796596E+01  2.00000000000E-01  0.0000E+00  9.0
  3000022    1    3    3    0    0 -3.20669021818E+01 -1.98829394148E+01 -3.34379486525E+01  7.83690876902E+01  6.00000000000E+01  0.0000E+00  9.0
       -2    1    4    4    0  504  3.78667092770E+01  2.97559255708E+01  6.34651338645E+01  7.96688521537E+01  3.00000000000E-03  0.0000E+00  9.0
        1    1    4    4  504    0 -8.93120493546E-01 -1.20791521560E+01 -1.38703796269E+01  1.84144246997E+01  5.00000000000E-03  0.0000E+00  9.0
  3000022    1    4    4    0    0  8.29728848181E+01 -6.35737242188E+01  7.19350645619E+01  1.40359436945E+02  6.00000000000E+01  0.0000E+00  9.0
</event>
<event>
10    1   3.4312288E-02   4.9870000E+02  -1.0000000E+00   9.3520000E-02
       11   -1    0    0    0    0  0.00000000000E+00  0.00000000000E+00  2.48720719790E+02  2.48720719790E+02  0.00000000000E+00  0.0000E+00  9.0
      -11   -1    0    0    0    0  0.00000000000E+00  0.00000000000E+00 -2.49997640730E+02  2.49997640730E+02  0.00000000000E+00  0.0000E+00  9.0
  3000025    2    1    2    0    0  1.76313761001E+02 -6.56138644806E+01  3.65383856344E+01  2.49593347464E+02  1.59906422458E+02  3.3099E-12  9.0
 -3000025    2    1    2    0    0 -1.76313761001E+02  6.56138644806E+01 -3.78153065784E+01  2.49125013054E+02  1.58875904993E+02  3.5294E-14  9.0
        4    1    3    3  500    0  8.57328441563E+01 -6.04218915407E+01 -1.27034931817E+01  1.05662007418E+02  1.46817165330E+00  0.0000E+00  9.0
       -3    1    3    3    0  500  3.39677970756E+01  2.61281374127E+01 -5.79351153382E-02  4.28548032232E+01  2.00000000000E-01  0.0000E+00  9.0
  3000022    1    3    3    0    0  5.66131197683E+01 -3.13201103525E+01  4.92998139317E+01  1.01076536823E+02  6.00000000000E+01  0.0000E+00  9.0
       -4    1    4    4    0  504 -1.12740302469E+02  6.76842669224E+00 -1.61963873252E+01  1.14108132450E+02  1.46817165330E+00  0.0000E+00  9.0
        3    1    4    4  504    0 -7.54113518714E+00  1.13127788072E+01  2.56487235031E+01  2.90300654769E+01  2.00000000000E-01  0.0000E+00  9.0
  3000022    1    4    4    0    0 -5.60323233446E+01  4.75326589809E+01 -4.72676427560E+01  1.05986815128E+02  6.00000000000E+01  0.0000E+00  9.0
</event>
<event>
10    1   3.4312288E-02   4.6940000E+02  -1.0000000E+00   9.4190000E-02
       11   -1    0    0    0    0  0.00000000000E+00  0.00000000000E+00  2.29514324800E+02  2.29514324800E+02  0.00000000000E+00  0.0000E+00  9.0
      -11   -1    0    0    0    0  0.00000000000E+00  0.00000000000E+00 -2.39986426600E+02  2.39986426600E+02  0.00000000000E+00  0.0000E+00  9.0
  3000025    2    1    2    0    0  7.85157566450E+01 -9.06310480058E+01 -1.28032145516E+02  2.37561500589E+02  1.60201514888E+02  2.5015E-12  9.0
 -3000025    2    1    2    0    0 -7.85157566450E+01  9.06310480058E+01  1.17560043716E+02  2.31939250809E+02  1.59989816186E+02  2.3523E-12  9.0
       14    1    3    3    0    0  2.28817934540E+01 -6.78664844875E+01 -6.32385601799E+01  9.55434544173E+01  0.00000000000E+00  0.0000E+00  9.0
      -13    1    3    3    0    0  2.82232057059E+01  1.74111398917E+01 -5.49170763502E+01  6.41528922184E+01  1.05700000000E-01  0.0000E+00  9.0
  3000022    1    3    3    0    0  2.74107574851E+01 -4.01757034095E+01 -9.87650898594E+00  7.78651539529E+01  6.00000000000E+01  0.0000E+00  9.0
       -4    1    4    4    0  500  5.60284667245E+00  3.35657321193E+01 -3.00673253251E+00  3.41942426742E+01  1.46817165330E+00  0.0000E+00  9.0
        3    1    4    4  500    0 -7.96816144594E+01  5.33596823142E+01  8.20793829179E+01  1.26227891053E+02  2.00000000000E-01  0.0000E+00  9.0
  3000022    1    4    4    0    0 -4.43698885802E+00  3.70563357228E+00  3.84873933309E+01  7.15171170819E+01  6.00000000000E+01  0.0000E+00  9.0
</event>
<event>
10    1   3.4312288E-02   5.0000000E+02  -1.0000000E+00   9.3490000E-02
       11   -1    0    0    0    0  0.00000000000E+00  0.00000000000E+00  2.49994484630E+02  2.49994484630E+02  0.00000000000E+00  0.0000E+00  9.0
      -11   -1    0    0    0    0  0.00000000000E+00  0.00000000000E+00 -2.50000000000E+02  2.50000000000E+02  0.00000000000E+00  0.0000E+00  9.0
  3000025    2    1    2    0    0  4.43999616303E+01  3.30909660275E+01  1.83726429183E+02  2.50058674210E+02  1.60335807423E+02  1.4298E-12  9.0
 -3000025    2    1    2    0    0 -4.43999616303E+01 -3.30909660275E+01 -1.83731944563E+02  2.49935810419E+02  1.60137794575E+02  5.6433E-12  9.0
        4    1    3    3  500    0 -1.05824404694E+01  2.78988097516E+01  1.36060394697E+02  1.39301536836E+02  1.46817165330E+00  0.0000E+00  9.0
       -3    1    3    3    0  500  5.30350315279E+00 -1.19885699577E+01 -6.20087267818E+00  1.45032333393E+01  2.00000000000E-01  0.0000E+00  9.0
  3000022    1    3    3    0    0  4.96788989472E+01  1.71807262335E+01  5.38669071665E+01  9.62539040361E+01  6.00000000000E+01  0.0000E+00  9.0
      -14    1    4    4    0    0 -5.15593025262E+01 -3.36943917839E+01 -3.41295798666E+01  7.04166311076E+01  0.00000000000E+00  0.0000E+00  9.0
       13    1    4    4    0    0  1.34037234653E+01  2.43969272383E+01 -1.89968410947E+01  3.37010534771E+01  1.05700000000E-01  0.0000E+00  9.0
  3000022    1    4    4    0    0 -6.24438256933E+00 -2.37935014820E+01 -1.30605523602E+02  1.45818125834E+02  6.00000000000E+01  0.0000E+00  9.0
</event>
<event>
10    1   3.4312288E-02   4.9740000E+02  -1.0000000E+00   9.3550000E-02
       11   -1    0    0    0    0  0.00000000000E+00  0.00000000000E+00  2.47435273350E+02  2.47435273350E+02  0.00000000000E+00  0.0000E+00  9.0
      -11   -1    0    0    0    0  0.00000000000E+00  0.00000000000E+00 -2.49999999360E+02  2.49999999360E+02  0.00000000000E+00  0.0000E+00  9.0
  3000025    2    1    2    0    0  1.74990796992E+02 -3.80124575234E+01 -6.79241330389E+01  2.49448199557E+02  1.59824874329E+02  7.1117E-14  9.0
 -3000025    2    1    2    0    0 -1.74990796992E+02  3.80124575234E+01  6.53594070309E+01  2.47987073148E+02  1.58615921024E+02  2.4069E-12  9.0
        4    1    3    3  500    0  7.67017692485E+01 -4.72686291614E+01 -6.18508810055E+01  1.09293969266E+02  1.46817165330E+00  0.0000E+00  9.0
       -3    1    3    3    0  500  4.25318846782E+01 -1.14372455195E+01  2.43933516740E+01  5.03472681011E+01  2.00000000000E-01  0.0000E+00  9.0
  3000022    1    3    3    0    0  5.57571430652E+01  2.06934171572E+01 -3.04666037078E+01  8.98069621907E+01  6.00000000000E+01  0.0000E+00  9.0
       -2    1    4    4    0  504 -2.06923147093E+01  5.72004340163E+00  5.51964894833E+01  5.92245155728E+01  3.00000000000E-03  0.0000E+00  9.0
        1    1    4    4  504    0 -1.80022589022E+01  1.35539702671E+01 -2.59683080920E+01  3.43823281024E+01  5.00000000000E-03  0.0000E+00  9.0
  3000022    1    4    4    0    0 -1.36296223381E+02  1.87384438548E+01  3.61312256395E+01  1.54380229473E+02  6.00000000000E+01  0.0000E+00  9.0
</event>
<event>
10    1   3.4312288E-02   4.9000000E+02  -1.0000000E+00   9.3720000E-02
       11   -1    0    0    0    0  0.00000000000E+00  0.00000000000E+00  2.49999999400E+02  2.49999999400E+02  0.00000000000E+00  0.0000E+00  9.0
      -11   -1    0    0    0    0  0.00000000000E+00  0.00000000000E+00 -2.40056035930E+02  2.40056035930E+02  0.00000000000E+00  0.0000E+00  9.0
  3000025    2    1    2    0    0  1.30667327646E+02  1.21842308887E+02 -4.50511073851E+01  2.44023585373E+02  1.59995028650E+02  1.5328E-12  9.0
 -3000025    2    1    2    0    0 -1.30667327646E+02 -1.21842308887E+02  5.49950708631E+01  2.46032449954E+02  1.59962526430E+02  1.8251E-12  9.0
        2    1    3    3  500    0  6.57812401988E+01  4.69326084834E+01 -5.40694487108E+01  9.72283219748E+01  3.00000000000E-03  0.0000E+00  9.0
       -1    1    3    3    0  500  7.59752387128E+00  6.11194125153E+01  1.15389556526E+01  6.26614113928E+01  5.00000000000E-03  0.0000E+00  9.0
  3000022    1    3    3    0    0  5.72885635754E+01  1.37902878870E+01 -2.52061432684E+00  8.41338520045E+01  6.00000000000E+01  0.0000E+00  9.0
       -4    1    4    4    0  504 -1.72068951893E+01 -4.13641325535E+01 -2.46562754001E+01  5.11581484083E+01  1.46817165330E+00  0.0000E+00  9.0
        3    1    4    4  504    0 -5.27245159464E+00  1.11650563290E+01  3.10683008830E+01  3.34325671824E+01  2.00000000000E-01  0.0000E+00  9.0
  3000022    1    4    4    0    0 -1.08187980862E+02 -9.16432326619E+01  4.85830453791E+01  1.61441734363E+02  6.00000000000E+01  0.0000E+00  9.0
</event>
<event>
10    1   3.4312288E-02   4.3110000E+02  -1.0000000E+00   9.5160000E-02
       11   -1    0    0    0    0  0.00000000000E+00  0.00000000000E+00  2.49999965450E+02  2.49999965450E+02  0.00000000000E+00  0.0000E+00  9.0
      -11   -1    0    0    0    0  0.00000000000E+00  0.00000000000E+00 -1.85869895900E+02  1.85869895900E+02  0.00000000000E+00  0.0000E+00  9.0
  3000025    2    1    2    0    0  1.38784237416E+02  2.36568315636E+01  6.44901783946E+01  2.22690945444E+02  1.60036132916E+02  1.0289E-13  9.0
 -3000025    2    1    2    0    0 -1.38784237416E+02 -2.36568315636E+01 -3.60108845166E-01  2.13178915908E+02  1.60076263933E+02  5.8813E-13  9.0
       14    1    3    3    0    0  7.21438906948E+01  2.41064823603E+00  3.32723828000E+01  7.94833545259E+01  0.00000000000E+00  0.0000E+00  9.0
      -13    1    3    3    0    0 -1.45907552665E+01 -2.46067023680E+01  2.99940773745E+00  2.87643452896E+01  1.05700000000E-01  0.0000E+00  9.0
  3000022    1    3    3    0    0  8.12311019876E+01  4.58528856950E+01  2.82183878569E+01  1.14443245628E+02  6.00000000000E+01  0.0000E+00  9.0
       -2    1    4    4    0  500 -8.42316511120E+01  4.77352794629E+00 -4.89679899304E+01  9.75480479811E+01  3.00000000000E-03  0.0000E+00  9.0
        1    1    4    4  500    0 -2.29267392775E+01  6.99043634452E+00  2.70368037801E+01  3.61315700991E+01  5.00000000000E-03  0.0000E+00  9.0
  3000022    1    4    4    0    0 -3.16258470270E+01 -3.54207958534E+01  2.15710773051E+01  7.94992978281E+01  6.00000000000E+01  0.0000E+00  9.0
</event>
<event>
10    1   3.4312288E-02   4.9890000E+02  -1.0000000E+00   9.3510000E-02
       11   -1    0    0    0    0  0.00000000000E+00  0.00000000000E+00  2.49999999980E+02  2.49999999980E+02  0.00000000000E+00  0.0000E+00  9.0
      -11   -1    0    0    0    0  0.00000000000E+00  0.00000000000E+00 -2.48916109270E+02  2.48916109270E+02  0.00000000000E+00  0.0000E+00  9.0
  3000025    2    1    2    0    0 -1.53740021057E+02 -1.01757126562E+01  1.13783234394E+02  2.49681697452E+02  1.60171116032E+02  7.4961E-13  9.0
 -3000025    2    1    2    0    0  1.53740021057E+02  1.01757126562E+01 -1.12699343684E+02  2.49234411801E+02  1.60240789928E+02  1.6187E-13  9.0
        2    1    3    3  500    0  1.02807419561E+01  1.99257641064E+01 -4.98411930357E+00  2.29689177939E+01  3.00000000000E-03  0.0000E+00  9.0
       -1    1    3    3    0  500 -5.59570261252E+01 -3.87618121090E+01  3.05589737724E+01  7.46158009658E+01  5.00000000000E-03  0.0000E+00  9.0
  3000022    1    3    3    0    0 -1.08063736888E+02  8.66033534737E+00  8.82083799251E+01  1.52096978693E+02  6.00000000000E+01  0.0000E+00  9.0
       -2    1    4    4    0  504 -9.74089321232E+00 -1.71759754373E+01  8.79681693321E+00  2.16167326383E+01  3.00000000000E-03  0.0000E+00  9.0
        1    1    4    4  504    0  5.18588623549E+01  7.44061846035E+00 -7.43366205949E+01  9.09430458820E+01  5.00000000000E-03  0.0000E+00  9.0
  3000022    1    4    4    0    0  1.11622051914E+02  1.99110696335E+01 -4.71595400220E+01  1.36674633281E+02  6.00000000000E+01  0.0000E+00  9.0
</event>
<event>
10    1   3.4312288E-02   4.7670000E+02  -1.0000000E+00   9.4020000E-02
       11   -1    0    0    0    0  0.00000000000E+00  0.00000000000E+00  2.47808687490E+02  2.47808687490E+02  0.00000000000E+00  0.0000E+00  9.0
      -11   -1    0    0    0    0  0.00000000000E+00  0.00000000000E+00 -2.29215709940E+02  2.29215709940E+02  0.00000000000E+00  0.0000E+00  9.0
  3000025    2    1    2    0    0 -5.67714558903E+01 -1.41578090482E+02 -7.99458145316E+01  2.35029069589E+02  1.59937413954E+02  2.1498E-12  9.0
 -3000025    2    1    2    0    0  5.67714558903E+01  1.41578090482E+02  9.85387920886E+01  2.41995327844E+02  1.59951527794E+02  3.1079E-13  9.0
        2    1    3    3  500    0  1.46589760700E+01  3.81366020556E+00  1.00690645345E+01  1.81883383844E+01  3.00000000000E-03  0.0000E+00  9.0
       -1    1    3    3    0  500 -1.10315332790E+01 -9.50649023557E+01 -6.20755959787E+01  1.14071951099E+02  5.00000000000E-03  0.0000E+00  9.0
  3000022    1    3    3    0    0 -6.03988986813E+01 -5.03268483317E+01 -2.79392830869E+01  1.02768780105E+02  6.00000000000E+01  0.0000E+00  9.0
       -4    1    4    4    0  504 -1.35600052061E+01 -7.26540920555E+00 -1.20384496250E+01  1.95892753692E+01  1.46817165330E+00  0.0000E+00  9.0
        3    1    4    4  504    0  4.95760911714E+00  7.97027878953E+01  5.47571019467E+01  9.68271268811E+01  2.00000000000E-01  0.0000E+00  9.0
  3000022    1    4    4    0    0  6.53738519793E+01  6.91407117925E+01  5.58201397668E+01  1.25578925594E+02  6.00000000000E+01  0.0000E+00  9.0
</event>
<event>
10    1   3.4312288E-02   4.9870000E+02  -1.0000000E+00   9.3520000E-02
       11   -1    0    0    0    0  0.00000000000E+00  0.00000000000E+00  2.49998941600E+02  2.49998941600E+02  0.00000000000E+00  0.0000E+00  9.0
      -11   -1    0    0    0    0  0.00000000000E+00  0.00000000000E+00 -2.48743695770E+02  2.48743695770E+02  0.00000000000E+00  0.0000E+00  9.0
  3000025    2    1    2    0    0  4.78343852348E+01  1.73761682055E+02 -6.30180504651E+01  2.49072101908E+02  1.59951201005E+02  1.1921E-12  9.0
 -3000025    2    1    2    0    0 -4.78343852348E+01 -1.73761682055E+02  6.42732962901E+01  2.49670535462E+02  1.60384129827E+02  1.0771E-12  9.0
        2    1    3    3  500    0  4.47875735895E+01  5.17073295685E+01 -4.70827255489E+01  8.30443118657E+01  3.00000000000E-03  0.0000E+00  9.0
       -1    1    3    3    0  500 -1.33445409470E+01 -5.59072252823E+00  1.48533771077E+01  2.07353752794E+01  5.00000000000E-03  0.0000E+00  9.0
  3000022    1    3    3    0    0  1.63913525924E+01  1.27645075015E+02 -3.07887020242E+01  1.45292414763E+02  6.00000000000E+01  0.0000E+00  9.0
       -4    1    4    4    0  504 -3.75874767111E+01 -6.76915219490E+01  5.07452208620E+01  9.25861410666E+01  1.46817165330E+00  0.0000E+00  9.0
        3    1    4    4  504    0  5.58904870166E-01 -7.46845281570E+01 -2.45912671486E+01  7.86311741020E+01  2.00000000000E-01  0.0000E+00  9.0
  3000022    1    4    4    0    0 -1.08058133943E+01 -3.13856319502E+01  3.81193425769E+01  7.84532202941E+01  6.00000000000E+01  0.0000E+00  9.0
</event>
<event>
10    1   3.4312288E-02   4.9060000E+02  -1.0000000E+00   9.3700000E-02
       11   -1    0    0    0    0  0.00000000000E+00  0.00000000000E+00  2.40732352950E+02  2.40732352950E+02  0.00000000000E+00  0.0000E+00  9.0
      -11   -1    0    0    0    0  0.00000000000E+00  0.00000000000E+00 -2.49972025520E+02  2.49972025520E+02  0.00000000000E+00  0.0000E+00  9.0
  3000025    2    1    2    0    0 -1.06799688167E+02  1.07477080742E+02 -1.12267530284E+02  2.47387841131E+02  1.60122607106E+02  3.6408E-13  9.0
 -3000025    2    1    2    0    0  1.06799688167E+02 -1.07477080742E+02  1.03027857714E+02  2.43316537343E+02  1.60095913758E+02  7.5285E-13  9.0
        2    1    3    3  500    0 -3.27496510079E+01  9.14424838740E+01 -2.57080522358E+01  1.00474730440E+02  3.00000000000E-03  0.0000E+00  9.0
       -1    1    3    3    0  500 -3.27224481558E+01 -9.86680932562E+00 -5.02616064858E+00  3.45452580746E+01  5.00000000000E-03  0.0000E+00  9.0
  3000022    1    3    3    0    0 -4.13275890031E+01  2.59014061934E+01 -8.15333173992E+01  1.12367852617E+02  6.00000000000E+01  0.0000E+00  9.0
      -14    1    4    4    0    0  3.45028204829E+01 -3.72685335802E+01  4.03824292915E+01  6.48855054074E+01  0.00000000000E+00  0.0000E+00  9.0
       13    1    4    4    0    0  2.79903441043E+01 -4.34269454079E+01 -2.73975998063E+01  5.84807540835E+01  1.05700000000E-01  0.0000E+00  9.0
  3000022    1    4    4    0    0  4.43065235795E+01 -2.67816017538E+01  9.00430282283E+01  1.19950277852E+02  6.00000000000E+01  0.0000E+00  9.0
</event>
<event>
10    1   3.4312288E-02   5.0000000E+02  -1.0000000E+00   9.3490000E-02
       11   -1    0    0    0    0  0.00000000000E+00  0.00000000000E+00  2.49992815120E+02  2.49992815120E+02  0.00000000000E+00  0.0000E+00  9.0
      -11   -1    0    0    0    0  0.00000000000E+00  0.00000000000E+00 -2.50000000000E+02  2.50000000000E+02  0.00000000000E+00  0.0000E+00  9.0
  3000025    2    1    2    0    0 -3.98277100762E+01 -1.68875475967E+02  8.09556340711E+01  2.50482075062E+02  1.61500100205E+02  1.7159E-12  9.0
 -3000025    2    1    2    0    0  3.98277100762E+01  1.68875475967E+02 -8.09628189461E+01  2.49510740054E+02  1.59985807113E+02  7.4597E-13  9.0
        4    1    3    3  500    0 -1.84734296528E+01 -7.08022598891E-01  2.86854862990E+01  3.41581842514E+01  1.46817165330E+00  0.0000E+00  9.0
       -3    1    3    3    0  500  6.99907371499E+00 -6.60026263656E+01 -2.62617949262E+01  7.13796581161E+01  2.00000000000E-01  0.0000E+00  9.0
  3000022    1    3    3    0    0 -2.83533541388E+01 -1.02164827001E+02  7.85319426982E+01  1.44944232693E+02  6.00000000000E+01  0.0000E+00  9.0
       -4    1    4    4    0  504 -1.09550278212E+01 -8.36365616974E+00 -3.72693922942E+01  3.97633815095E+01  1.46817165330E+00  0.0000E+00  9.0
        3    1    4    4  504    0  2.05100063882E+01  4.59154650657E+01  1.26132640839E+01  5.18461640345E+01  2.00000000000E-01  0.0000E+00  9.0
  3000022    1    4    4    0    0  3.02727315095E+01  1.31323667071E+02 -5.63066907359E+01  1.57901194510E+02  6.00000000000E+01  0.0000E+00  9.0
</event>
<event>
10    1   3.4312288E-02   4.9980000E+02  -1.0000000E+00   9.3490000E-02
       11   -1    0    0    0    0  0.00000000000E+00  0.00000000000E+00  2.49819154950E+02  2.49819154950E+02  0.00000000000E+00  0.0000E+00  9.0
      -11   -1    0    0    0    0  0.00000000000E+00  0.00000000000E+00 -2.49999315300E+02  2.49999315300E+02  0.00000000000E+00  0.0000E+00  9.0
  3000025    2    1    2    0    0  1.75132500012E+01  1.89975406431E+02  2.12887238666E+01  2.49891872963E+02  1.59985528829E+02  7.3396E-14  9.0
 -3000025    2    1    2    0    0 -1.75132500012E+01 -1.89975406431E+02 -2.14688842196E+01  2.49926597295E+02  1.60015693204E+02  1.3723E-12  9.0
        2    1    3    3  500    0  1.10346071576E+01 -1.12810775226E+01 -8.66322095370E+00  1.80021296375E+01  3.00000000000E-03  0.0000E+00  9.0
       -1    1    3    3    0  500 -2.14746831631E+01  1.07228468692E+02 -1.08060007565E+01  1.09890291620E+02  5.00000000000E-03  0.0000E+00  9.0
  3000022    1    3    3    0    0  2.79533260065E+01  9.40280152616E+01  4.07579455758E+01  1.21999451705E+02  6.00000000000E+01  0.0000E+00  9.0
       -2    1    4    4    0  504  5.79920719898E+00 -7.29333011508E+01 -2.07190851620E+01  7.60406320320E+01  3.00000000000E-03  0.0000E+00  9.0
        1    1    4    4  504    0 -1.21514814036E+01  2.00548862114E+01 -3.97814958846E+00  2.37840841826E+01  5.00000000000E-03  0.0000E+00  9.0
  3000022    1    4    4    0    0 -1.11609757964E+01 -1.37096991492E+02  3.22835053036E+00  1.50101881081E+02  6.00000000000E+01  0.0000E+00  9.0
</event>
<event>
10    1   3.4312288E-02   4.8190000E+02  -1.0000000E+00   9.3900000E-02
       11   -1    0    0    0    0  0.00000000000E+00  0.00000000000E+00  2.50000000000E+02  2.50000000000E+02  0.00000000000E+00  0.0000E+00  9.0
      -11   -1    0    0    0    0  0.00000000000E+00  0.00000000000E+00 -2.32206680560E+02  2.32206680560E+02  0.00000000000E+00  0.0000E+00  9.0
  3000025    2    1    2    0    0  1.69293813912E+02 -1.87935069874E+01 -5.00424364846E+01  2.38872141150E+02  1.59818844429E+02  4.0712E-12  9.0
 -3000025    2    1    2    0    0 -1.69293813912E+02  1.87935069874E+01  6.78357559266E+01  2.43334539410E+02  1.59988802590E+02  1.9515E-12  9.0
       14    1    3    3    0    0 -6.06576117032E+00  8.15690233730E+00 -3.80344591480E+01  3.93693865458E+01  0.00000000000E+00  0.0000E+00  9.0
      -13    1    3    3    0    0  7.37502658065E+01 -2.95082090826E+01 -1.75229952995E+01  8.13443461253E+01  1.05700000000E-01  0.0000E+00  9.0
  3000022    1    3    3    0    0  1.01609309276E+02  2.55779975891E+00  5.51501796282E+00  1.18158408479E+02  6.00000000000E+01  0.0000E+00  9.0
       -2    1    4    4    0  500 -8.61390418846E+01  3.17547852648E+01  7.36416357674E+01  1.17691934522E+02  3.00000000000E-03  0.0000E+00  9.0
        1    1    4    4  500    0 -5.35039552011E+01  3.51822294396E+00 -1.60263090958E+01  5.59633248036E+01  5.00000000000E-03  0.0000E+00  9.0
  3000022    1    4    4    0    0 -2.96508168261E+01 -1.64795012217E+01  1.02204292551E+01  6.96792800848E+01  6.00000000000E+01  0.0000E+00  9.0
</event>
<event>
10    1   3.4312288E-02   4.9970000E+02  -1.0000000E+00   9.3500000E-02
       11   -1    0    0    0    0  0.00000000000E+00  0.00000000000E+00  2.49989799640E+02  2.49989799640E+02  0.00000000000E+00  0.0000E+00  9.0
      -11   -1    0    0    0    0  0.00000000000E+00  0.00000000000E+00 -2.49758637220E+02  2.49758637220E+02  0.00000000000E+00  0.0000E+00  9.0
  3000025    2    1    2    0    0 -1.73932245649E+02 -7.65313492785E+01 -2.66797182646E+01  2.49900808709E+02  1.60091015763E+02  2.6876E-12  9.0
 -3000025    2    1    2    0    0  1.73932245649E+02  7.65313492785E+01  2.69108806916E+01  2.49847628147E+02  1.59969272962E+02  2.1723E-12  9.0
        4    1    3    3  500    0 -3.39689876542E+01  1.52290590770E+01 -3.58161639132E+01  5.16794880787E+01  1.46817165330E+00  0.0000E+00  9.0
       -3    1    3    3    0  500 -2.37727376078E+01 -5.26162633493E+01 -1.48784359387E+01  5.96240058885E+01  2.00000000000E-01  0.0000E+00  9.0
  3000022    1    3    3    0    0 -1.16190520387E+02 -3.91441450060E+01  2.40148815874E+01  1.38597314742E+02  6.00000000000E+01  0.0000E+00  9.0
      -14    1    4    4    0    0  7.29427901148E+01  7.48897121160E+01  2.91252319662E+00  1.04582992890E+02  0.00000000000E+00  0.0000E+00  9.0
       13    1    4    4    0    0  5.01829049442E+01 -2.50095004299E+00  4.08443051636E+01  6.47521979283E+01  1.05700000000E-01  0.0000E+00  9.0
  3000022    1    4    4    0    0  5.08065505900E+01  4.14258720545E+00 -1.68459476689E+01  8.05124373278E+01  6.00000000000E+01  0.0000E+00  9.0
</event>
<event>
10    1   3.4312288E-02   4.8220000E+02  -1.0000000E+00   9.3890000E-02
       11   -1    0    0    0    0  0.00000000000E+00  0.00000000000E+00  2.47097485320E+02  2.47097485320E+02  0.00000000000E+00  0.0000E+00  9.0
      -11   -1    0    0    0    0  0.00000000000E+00  0.00000000000E+00 -2.35227021590E+02  2.35227021590E+02  0.00000000000E+00  0.0000E+00  9.0
  3000025    2    1    2    0    0 -1.10873909015E+02 -1.41416995428E+02  2.08344223823E+01  2.41508083406E+02  1.60000909054E+02  5.1441E-13  9.0
 -3000025    2    1    2    0    0  1.10873909015E+02  1.41416995428E+02 -8.96395865032E+00  2.40816423502E+02  1.60063759101E+02  1.6625E-12  9.0
       14    1    3    3    0    0 -4.50277704448E-01 -9.37012563825E+01  2.59439187781E+01  9.72276458587E+01  0.00000000000E+00  0.0000E+00  9.0
      -13    1    3    3    0    0 -3.71182277400E+01 -5.30833666738E+00  1.13916661478E+01  3.91882954318E+01  1.05700000000E-01  0.0000E+00  9.0
  3000022    1    3    3    0    0 -7.33054035692E+01 -4.24074023796E+01 -1.65011625444E+01  1.05092142115E+02  6.00000000000E+01  0.0000E+00  9.0
       -2    1    4    4    0  500  3.08413934602E+01 -1.36005829673E+01  5.32235685351E+00  3.41246963223E+01  3.00000000000E-03  0.0000E+00  9.0
        1    1    4    4  500    0  5.21552869075E+01  7.68909422954E+01 -3.99691234924E+01  1.01143075973E+02  5.00000000000E-03  0.0000E+00  9.0
  3000022    1    4    4    0    0  2.78772286463E+01  7.81266361000E+01  2.56828079890E+01  1.05548651206E+02  6.00000000000E+01  0.0000E+00  9.0
</event>
<event>
10    1   3.4312288E-02   4.7620000E+02  -1.0000000E+00   9.4030000E-02
       11   -1    0    0    0    0  0.00000000000E+00  0.00000000000E+00  2.28510840280E+02  2.28510840280E+02  0.00000000000E+00  0.0000E+00  9.0
      -11   -1    0    0    0    0  0.00000000000E+00  0.00000000000E+00 -2.48102173400E+02  2.48102173400E+02  0.00000000000E+00  0.0000E+00  9.0
  3000025    2    1    2    0    0  1.00012930209E+02  9.87125818359E+01 -1.14998240632E+02  2.41996198741E+02  1.59971262528E+02  1.2968E-13  9.0
 -3000025    2    1    2    0    0 -1.00012930209E+02 -9.87125818359E+01  9.54069075040E+01  2.34616814946E+02  1.61851202758E+02  1.0471E-12  9.0
        4    1    3    3  500    0  9.55494705975E+01  3.65819149247E+01 -5.41484870492E+01  1.15767663917E+02  1.46817165330E+00  0.0000E+00  9.0
       -3    1    3    3    0  500  2.59374194206E+00  4.19212053499E+01 -5.97586880921E+00  4.24248272039E+01  2.00000000000E-01  0.0000E+00  9.0
  3000022    1    3    3    0    0  1.86971766977E+00  2.02094615620E+01 -5.48738847735E+01  8.38037076204E+01  6.00000000000E+01  0.0000E+00  9.0
       -4    1    4    4    0  504 -6.11103358865E+01 -5.39451890108E+01  3.18085209197E+01  8.75128224929E+01  1.46817165330E+00  0.0000E+00  9.0
        3    1    4    4  504    0  2.32926974381E+01 -3.47392563981E+01  3.77600982481E+01  5.63491855198E+01  2.00000000000E-01  0.0000E+00  9.0
  3000022    1    4    4    0    0 -6.21952917609E+01 -1.00281364276E+01  2.58382883364E+01  9.07548069338E+01  6.00000000000E+01  0.0000E+00  9.0
</event>
<event>
10    1   3.4312288E-02   4.8400000E+02  -1.0000000E+00   9.3850000E-02
       11   -1    0    0    0    0  0.00000000000E+00  0.00000000000E+00  2.49973734890E+02  2.49973734890E+02  0.00000000000E+00  0.0000E+00  9.0
      -11   -1    0    0    0    0  0.00000000000E+00  0.00000000000E+00 -2.34272733470E+02  2.34272733470E+02  0.00000000000E+00  0.0000E+00  9.0
  3000025    2    1    2    0    0  5.60330580464E+01 -1.51149012125E+02 -7.53433806898E+01  2.39310105304E+02  1.60021792349E+02  3.0725E-13  9.0
 -3000025    2    1    2    0    0 -5.60330580464E+01  1.51149012125E+02  9.10443821038E+01  2.44936363052E+02  1.60371490522E+02  6.9105E-13  9.0
        2    1    3    3  500    0  4.54147904657E+01 -1.01717423322E+02 -5.28862272203E+01  1.23312166630E+02  3.00000000000E-03  0.0000E+00  9.0
       -1    1    3    3    0  500 -1.33088651811E+01 -2.61323421235E+01  1.97856408573E+01  3.53765007654E+01  5.00000000000E-03  0.0000E+00  9.0
  3000022    1    3    3    0    0  2.39271327623E+01 -2.32992466794E+01 -4.22427943268E+01  8.06214379095E+01  6.00000000000E+01  0.0000E+00  9.0
      -14    1    4    4    0    0 -7.72225017424E+00  2.87792275354E+01 -2.41237191613E+01  3.83383738761E+01  0.00000000000E+00  0.0000E+00  9.0
       13    1    4    4    0    0 -4.36093663857E+01  1.85970386132E+01  5.42771900591E+01  7.20669911606E+01  1.05700000000E-01  0.0000E+00  9.0
  3000022    1    4    4    0    0 -4.70144148632E+00  1.03772745976E+02  6.08909112049E+01  1.34530998015E+02  6.00000000000E+01  0.0000E+00  9.0
</event>
<event>
10    1   3.4312288E-02   4.8250000E+02  -1.0000000E+00   9.3890000E-02
       11   -1    0    0    0    0  0.00000000000E+00  0.00000000000E+00  2.32838435480E+02  2.32838435480E+02  0.00000000000E+00  0.0000E+00  9.0
      -11   -1    0    0    0    0  0.00000000000E+00  0.00000000000E+00 -2.50000000000E+02  2.50000000000E+02  0.00000000000E+00  0.0000E+00  9.0
  3000025    2    1    2    0    0 -4.96313049233E+01  1.58243843743E+02 -7.99107524513E+01  2.43934148088E+02  1.60042993396E+02  5.6462E-13  9.0
 -3000025    2    1    2    0    0  4.96313049233E+01 -1.58243843743E+02  6.27491879343E+01  2.38904287393E+02  1.60104395435E+02  1.0029E-12  9.0
        2    1    3    3  500    0 -1.94219983401E+01  8.87247961530E+01 -5.24894236569E+01  1.04902064216E+02  3.00000000000E-03  0.0000E+00  9.0
       -1    1    3    3    0  500 -4.62545342707E+01  1.97898910048E+01  9.69606337790E+00  5.12360751484E+01  5.00000000000E-03  0.0000E+00  9.0
  3000022    1    3    3    0    0  1.60452276874E+01  4.97291565851E+01 -3.71173921720E+01  8.77960087239E+01  6.00000000000E+01  0.0000E+00  9.0
       -4    1    4    4    0  504 -1.51738993215E+01 -1.22535791311E+01  3.45083287282E+01  3.96658253634E+01  1.46817165330E+00  0.0000E+00  9.0
        3    1    4    4  504    0  6.68485302398E+01 -4.86683393444E+01  1.61622097747E+01  8.42531321351E+01  2.00000000000E-01  0.0000E+00  9.0
  3000022    1    4    4    0    0 -2.04332599614E+00 -9.73219252670E+01  1.20786494309E+01  1.14985329894E+02  6.00000000000E+01  0.0000E+00  9.0
</event>
<event>
10    1   3.4312288E-02   4.9880000E+02  -1.0000000E+00   9.3520000E-02
       11   -1    0    0    0    0  0.00000000000E+00  0.00000000000E+00  2.48842207520E+02  2.48842207520E+02  0.00000000000E+00  0.0000E+00  9.0
      -11   -1    0    0    0    0  0.00000000000E+00  0.00000000000E+00 -2.50000000000E+02  2.50000000000E+02  0.00000000000E+00  0.0000E+00  9.0
  3000025    2    1    2    0    0  1.35879211179E+02  1.07907538308E+02 -8.11755906607E+01  2.49611676001E+02  1.60029108048E+02  2.0682E-12  9.0
 -3000025    2    1    2    0    0 -1.35879211179E+02 -1.07907538308E+02  8.00177981757E+01  2.49230531511E+02  1.60018164463E+02  2.2298E-12  9.0
        2    1    3    3  500    0  3.09988187868E+01  3.33112843247E+01 -6.90784480818E+01  8.27188033516E+01  3.00000000000E-03  0.0000E+00  9.0
       -1    1    3    3    0  500 -8.82672918778E+00 -6.23762993562E+00  8.34739748878E+00  1.36564360359E+01  5.00000000000E-03  0.0000E+00  9.0
  3000022    1    3    3    0    0  1.13707121580E+02  8.08338839196E+01 -2.04445400678E+01  1.53236436614E+02  6.00000000000E+01  0.0000E+00  9.0
       -4    1    4    4    0  504 -5.59780495588E+01 -6.51428526500E+01  4.44168630521E+01  9.67064968612E+01  1.46817165330E+00  0.0000E+00  9.0
        3    1    4    4  504    0 -2.38946899072E+01  2.27209735612E+01  3.42107704764E+01  4.75143732140E+01  2.00000000000E-01  0.0000E+00  9.0
  3000022    1    4    4    0    0 -5.60064717136E+01 -6.54856592194E+01  1.39016464728E+00  1.05009661436E+02  6.00000000000E+01  0.0000E+00  9.0
</event>
<event>
10    1   3.4312288E-02   4.9820000E+02  -1.0000000E+00   9.3530000E-02
       11   -1    0    0    0    0  0.00000000000E+00  0.00000000000E+00  2.48216713930E+02  2.48216713930E+02  0.00000000000E+00  0.0000E+00  9.0
      -11   -1    0    0    0    0  0.00000000000E+00  0.00000000000E+00 -2.50000000000E+02  2.50000000000E+02  0.00000000000E+00  0.0000E+00  9.0
  3000025    2    1    2    0    0 -6.35817150071E+01  1.33732544942E+02  1.19666203656E+02  2.48687660878E+02  1.59995388419E+02  6.4211E-13  9.0
 -3000025    2    1    2    0    0  6.35817150071E+01 -1.33732544942E+02 -1.21449489736E+02  2.49529053054E+02  1.59961688229E+02  1.9653E-13  9.0
        2    1    3    3  500    0 -1.76349244693E+01  8.70099078476E+01  5.65862558094E+01  1.05279242874E+02  3.00000000000E-03  0.0000E+00  9.0
       -1    1    3    3    0  500  2.11002144342E+01 -9.01245275030E+00  1.06418705576E+01  2.52921487366E+01  5.00000000000E-03  0.0000E+00  9.0
  3000022    1    3    3    0    0 -6.70470049715E+01  5.57350898445E+01  5.24380772886E+01  1.18116269266E+02  6.00000000000E+01  0.0000E+00  9.0
       -4    1    4    4    0  504  3.13225421365E+01  1.03171224933E+01 -5.21667038755E+01  6.17338252798E+01  1.46817165330E+00  0.0000E+00  9.0
        3    1    4    4  504    0  2.79984743476E+01 -7.86664385402E+01 -4.84617352404E+01  9.65448232734E+01  2.00000000000E-01  0.0000E+00  9.0
  3000022    1    4    4    0    0  4.26069852313E+00 -6.53832288952E+01 -2.08210506204E+01  9.12504045010E+01  6.00000000000E+01  0.0000E+00  9.0
</event>
<event>
10    1   3.4312288E-02   4.8930000E+02  -1.0000000E+00   9.3730000E-02
       11   -1    0    0    0    0  0.00000000000E+00  0.00000000000E+00  2.46492087690E+02  2.46492087690E+02  0.00000000000E+00  0.0000E+00  9.0
      -11   -1    0    0    0    0  0.00000000000E+00  0.00000000000E+00 -2.42853243290E+02  2.42853243290E+02  0.00000000000E+00  0.0000E+00  9.0
  3000025    2    1    2    0    0  4.56526213496E+01 -1.73482156107E+02  4.74089346609E+01  2.44968250735E+02  1.59942541116E+02  7.0028E-13  9.0
 -3000025    2    1    2    0    0 -4.56526213496E+01  1.73482156107E+02 -4.37700902629E+01  2.44377080249E+02  1.60075345464E+02  3.6026E-13  9.0
        4    1    3    3  500    0  2.66131917240E+01 -8.93664913370E+01  1.59335490711E+01  9.46079555938E+01  1.46817165330E+00  0.0000E+00  9.0
       -3    1    3    3    0  500 -3.10464171271E+01 -1.73110287504E+01  3.15707990872E+01  4.75426870069E+01  2.00000000000E-01  0.0000E+00  9.0
  3000022    1    3    3    0    0  5.00858467527E+01 -6.68046360198E+01 -9.54134972326E-02  1.02817608134E+02  6.00000000000E+01  0.0000E+00  9.0
       -2    1    4    4    0  504  1.14568826214E+01 -1.43518510196E+01  7.73065051314E+00  1.99248275638E+01  3.00000000000E-03  0.0000E+00  9.0
        1    1    4    4  504    0 -2.26763217067E+00  7.95128875755E+01 -3.85819022667E+01  8.84081707410E+01  5.00000000000E-03  0.0000E+00  9.0
  3000022    1    4    4    0    0 -5.48418718004E+01  1.08321119552E+02 -1.29188385096E+01  1.36044081944E+02  6.00000000000E+01  0.0000E+00  9.0
</event>
<event>
10    1   3.4312288E-02   4.7100000E+02  -1.0000000E+00   9.4160000E-02
       11   -1    0    0    0    0  0.00000000000E+00  0.00000000000E+00  2.41853502610E+02  2.41853502610E+02  0.00000000000E+00  0.0000E+00  9.0
      -11   -1    0    0    0    0  0.00000000000E+00  0.00000000000E+00 -2.29265335810E+02  2.29265335810E+02  0.00000000000E+00  0.0000E+00  9.0
  3000025    2    1    2    0    0  1.07144609679E+02  1.33259302204E+02  3.13205835919E+01  2.36161576867E+02  1.59854003467E+02  6.8564E-13  9.0
 -3000025    2    1    2    0    0 -1.07144609679E+02 -1.33259302204E+02 -1.87324167879E+01  2.34957261547E+02  1.60049999400E+02  1.3986E-12  9.0
        2    1    3    3  500    0  2.69972772487E+01  8.58972857006E+01  3.79950153118E+01  9.77282859110E+01  3.00000000000E-03  0.0000E+00  9.0
       -1    1    3    3    0  500  4.65074881415E+01  3.24254004026E+01 -3.01734057334E+01  6.42245084298E+01  5.00000000000E-03  0.0000E+00  9.0
  3000022    1    3    3    0    0  3.36398442893E+01  1.49366161015E+01  2.34989740136E+01  7.42087825265E+01  6.00000000000E+01  0.0000E+00  9.0
       -2    1    4    4    0  504 -6.51815450802E+01 -4.15168845462E+01 -3.82645947395E+00  7.73752371407E+01  3.00000000000E-03  0.0000E+00  9.0
        1    1    4    4  504    0  1.67968061338E+01 -2.40803049967E+01  2.88824489981E+01  4.11848232989E+01  5.00000000000E-03  0.0000E+00  9.0
  3000022    1    4    4    0    0 -5.87598707330E+01 -6.76621126613E+01 -4.37884063122E+01  1.16397201108E+02  6.00000000000E+01  0.0000E+00  9.0
</event>
<event>
10    1   3.4312288E-02   4.4460000E+02  -1.0000000E+00   9.4810000E-02
       11   -1    0    0    0    0  0.00000000000E+00  0.00000000000E+00  2.25684049710E+02  2.25684049710E+02  0.00000000000E+00  0.0000E+00  9.0
      -11   -1    0    0    0    0  0.00000000000E+00  0.00000000000E+00 -2.18993393740E+02  2.18993393740E+02  0.00000000000E+00  0.0000E+00  9.0
  3000025    2    1    2    0    0  1.47330344568E+02  2.71367242099E+01 -3.41414169192E+01  2.21824970322E+02  1.59993902627E+02  7.4191E-14  9.0
 -3000025    2    1    2    0    0 -1.47330344568E+02 -2.71367242099E+01  4.08320728922E+01  2.22852473132E+02  1.59854103398E+02  1.5178E-12  9.0
        4    1    3    3  500    0  1.74282984595E+01  1.05408170493E+01 -4.60796299880E+01  5.04018078951E+01  1.46817165330E+00  0.0000E+00  9.0
       -3    1    3    3    0  500  2.10208222089E+01 -1.25082517444E+01  3.39653433559E+01  4.18570887344E+01  2.00000000000E-01  0.0000E+00  9.0
  3000022    1    3    3    0    0  1.08881223899E+02  2.91041589055E+01 -2.20271302864E+01  1.29566073692E+02  6.00000000000E+01  0.0000E+00  9.0
       -4    1    4    4    0  504 -4.40061864552E+01  1.23431161167E+01 -3.22060255682E+01  5.59310340750E+01  1.46817165330E+00  0.0000E+00  9.0
        3    1    4    4  504    0 -3.74087033205E+01 -4.73796560616E+01  2.47911332959E+01  6.52601193895E+01  2.00000000000E-01  0.0000E+00  9.0
  3000022    1    4    4    0    0 -6.59154547917E+01  7.89981573493E+00  4.82469651634E+01  1.01661319667E+02  6.00000000000E+01  0.0000E+00  9.0
</event>
<event>
10    1   3.4312288E-02   4.9670000E+02  -1.0000000E+00   9.3560000E-02
       11   -1    0    0    0    0  0.00000000000E+00  0.00000000000E+00  2.46700665540E+02  2.46700665540E+02  0.00000000000E+00  0.0000E+00  9.0
      -11   -1    0    0    0    0  0.00000000000E+00  0.00000000000E+00 -2.49999869430E+02  2.49999869430E+02  0.00000000000E+00  0.0000E+00  9.0
  3000025    2    1    2    0    0  3.60023013477E+01 -1.70594519462E+02  7.35112520205E+01  2.47910747843E+02  1.60178584554E+02  7.7608E-13  9.0
 -3000025    2    1    2    0    0 -3.60023013477E+01  1.70594519462E+02 -7.68104559055E+01  2.48789787132E+02  1.59993300709E+02  4.1190E-13  9.0
        2    1    3    3  500    0 -7.09349965778E+00 -6.49570373626E+01 -4.17145338329E-01  6.53445365700E+01  3.00000000000E-03  0.0000E+00  9.0
       -1    1    3    3    0  500 -7.31175547645E+00  9.06102691254E+00  3.70578348090E+01  3.88438814048E+01  5.00000000000E-03  0.0000E+00  9.0
  3000022    1    3    3    0    0  5.04075564820E+01 -1.14698509012E+02  3.68705625499E+01  1.43722329869E+02  6.00000000000E+01  0.0000E+00  9.0
       -4    1    4    4    0  504 -3.80149873226E+01  4.12442227162E+01  7.82654096131E+00  5.66536445432E+01  1.46817165330E+00  0.0000E+00  9.0
        3    1    4    4  504    0  9.65907686336E+00  1.07868581426E+02 -5.37037388880E+01  1.20884491128E+02  2.00000000000E-01  0.0000E+00  9.0
  3000022    1    4    4    0    0 -7.64639088858E+00  2.14817153203E+01 -3.09332579790E+01  7.12516514610E+01  6.00000000000E+01  0.0000E+00  9.0
</event>
<event>
10    1   3.4312288E-02   4.7200000E+02  -1.0000000E+00   9.4130000E-02
       11   -1    0    0    0    0  0.00000000000E+00  0.00000000000E+00  2.49999659550E+02  2.49999659550E+02  0.00000000000E+00  0.0000E+00  9.0
      -11   -1    0    0    0    0  0.00000000000E+00  0.00000000000E+00 -2.22792548890E+02  2.22792548890E+02  0.00000000000E+00  0.0000E+00  9.0
  3000025    2    1    2    0    0  4.42137630192E+01  1.67107776979E+02  2.85718765933E+01  2.37249777027E+02  1.59972618283E+02  3.3699E-13  9.0
 -3000025    2    1    2    0    0 -4.42137630192E+01 -1.67107776979E+02 -1.36476592625E+00  2.35542431408E+02  1.59995338809E+02  1.8739E-12  9.0
        2    1    3    3  500    0  2.21842836146E+01  6.40376537717E+00  2.82516910017E+01  3.64871032552E+01  3.00000000000E-03  0.0000E+00  9.0
       -1    1    3    3    0  500 -2.84921875836E+00  3.79192509180E+01 -4.09225098518E+01  5.58626841038E+01  5.00000000000E-03  0.0000E+00  9.0
  3000022    1    3    3    0    0  2.48786981627E+01  1.22784760683E+02  4.12426954443E+01  1.44899989668E+02  6.00000000000E+01  0.0000E+00  9.0
       -2    1    4    4    0  504 -1.09136838868E+01 -7.12550745906E+01  3.81167798511E+01  8.15431362293E+01  3.00000000000E-03  0.0000E+00  9.0
        1    1    4    4  504    0  3.48101103923E+00  1.54597017200E+01 -1.09167089828E+01  1.92430344577E+01  5.00000000000E-03  0.0000E+00  9.0
  3000022    1    4    4    0    0 -3.67810901718E+01 -1.11312404108E+02 -2.85648367935E+01  1.34756260721E+02  6.00000000000E+01  0.0000E+00  9.0
</event>
<event>
10    1   3.4312288E-02   4.5570000E+02  -1.0000000E+00   9.4530000E-02
       11   -1    0    0    0    0  0.00000000000E+00  0.00000000000E+00  2.25734780610E+02  2.25734780610E+02  0.00000000000E+00  0.0000E+00  9.0
      -11   -1    0    0    0    0  0.00000000000E+00  0.00000000000E+00 -2.30035270380E+02  2.30035270380E+02  0.00000000000E+00  0.0000E+00  9.0
  3000025    2    1    2    0    0  5.33952034883E+01  1.52915204656E+02  5.18884742067E+00  2.27866310613E+02  1.60193707130E+02  2.0909E-13  9.0
 -3000025    2    1    2    0    0 -5.33952034883E+01 -1.52915204656E+02 -9.48933719367E+00  2.27903740379E+02  1.60049866566E+02  2.3358E-12  9.0
       14    1    3    3    0    0 -3.06085663467E+01  2.19280382502E+01 -1.64144804629E+01  4.10750333435E+01  0.00000000000E+00  0.0000E+00  9.0
      -13    1    3    3    0    0  2.54382974665E+01  5.95662455289E+01  3.85201126885E+01  7.53595039689E+01  1.05700000000E-01  0.0000E+00  9.0
  3000022    1    3    3    0    0  5.85654723687E+01  7.14209208779E+01 -1.69167848059E+01  1.11431773301E+02  6.00000000000E+01  0.0000E+00  9.0
       -4    1    4    4    0  500  2.37770424965E+01 -2.37643985246E+01  3.50019457359E+00  3.38304785241E+01  1.46817165330E+00  0.0000E+00  9.0
        3    1    4    4  500    0 -6.47156841259E+01 -9.72011037300E+01  1.83215396954E+01  1.18202762891E+02  2.00000000000E-01  0.0000E+00  9.0
  3000022    1    4    4    0    0 -1.24565618589E+01 -3.19497024013E+01 -3.13110714624E+01  7.58704989637E+01  6.00000000000E+01  0.0000E+00  9.0
</event>
<event>
10    1   3.4312288E-02   4.9250000E+02  -1.0000000E+00   9.3660000E-02
       11   -1    0    0    0    0  0.00000000000E+00  0.00000000000E+00  2.47512492990E+02  2.47512492990E+02  0.00000000000E+00  0.0000E+00  9.0
      -11   -1    0    0    0    0  0.00000000000E+00  0.00000000000E+00 -2.44968997010E+02  2.44968997010E+02  0.00000000000E+00  0.0000E+00  9.0
  3000025    2    1    2    0    0 -1.73784552219E+02 -1.12447404274E+01 -6.62256032194E+01  2.45652794159E+02  1.60099812552E+02  5.3031E-13  9.0
 -3000025    2    1    2    0    0  1.73784552219E+02  1.12447404274E+01  6.87690992044E+01  2.46828695844E+02  1.60834390942E+02  4.0980E-12  9.0
       14    1    3    3    0    0 -9.61238543808E+01  3.30970753505E+01  1.25911426833E+01  1.02438999662E+02  0.00000000000E+00  0.0000E+00  9.0
      -13    1    3    3    0    0 -7.60183930862E+00 -2.38750036947E+01 -1.51240822460E+01  2.92669232849E+01  1.05700000000E-01  0.0000E+00  9.0
  3000022    1    3    3    0    0 -7.00588585287E+01 -2.04668120833E+01 -6.36926636558E+01  1.13946871211E+02  6.00000000000E+01  0.0000E+00  9.0
       -4    1    4    4    0  500  5.92765775419E+01  3.94083823324E+01  7.32679964260E+01  1.02162067674E+02  1.46817165330E+00  0.0000E+00  9.0
        3    1    4    4  500    0  4.82588838816E+01 -2.34778184511E+01  8.11936846097E+00  5.42779142647E+01  2.00000000000E-01  0.0000E+00  9.0
  3000022    1    4    4    0    0  6.62490907957E+01 -4.68582345391E+00 -1.26182656827E+01  9.03887139058E+01  6.00000000000E+01  0.0000E+00  9.0
</event>
<event>
10    1   3.4312288E-02   4.9990000E+02  -1.0000000E+00   9.3490000E-02
       11   -1    0    0    0    0  0.00000000000E+00  0.00000000000E+00  2.49880766210E+02  2.49880766210E+02  0.00000000000E+00  0.0000E+00  9.0
      -11   -1    0    0    0    0  0.00000000000E+00  0.00000000000E+00 -2.49998084280E+02  2.49998084280E+02  0.00000000000E+00  0.0000E+00  9.0
  3000025    2    1    2    0    0 -1.27760136849E+02  1.11443496264E+02  8.99799837960E+01  2.50027962272E+02  1.60235074209E+02  6.8823E-13  9.0
 -3000025    2    1    2    0    0  1.27760136849E+02 -1.11443496264E+02 -9.00973018660E+01  2.49850888228E+02  1.59892579933E+02  7.5397E-13  9.0
        4    1    3    3  500    0 -4.23791237706E+01  7.72852813752E+01  1.91998130698E+01  9.02208024722E+01  1.46817165330E+00  0.0000E+00  9.0
       -3    1    3    3    0  500 -7.40771909746E+01  9.96224489218E+00  5.34341555234E+01  9.18799516895E+01  2.00000000000E-01  0.0000E+00  9.0
  3000022    1    3    3    0    0 -1.13038221039E+01  2.41959699965E+01  1.73460152024E+01  6.79272081101E+01  6.00000000000E+01  0.0000E+00  9.0
       -2    1    4    4    0  504  2.09185432418E+01  2.74574233902E+00 -5.23438649187E+01  5.64358463743E+01  3.00000000000E-03  0.0000E+00  9.0
        1    1    4    4  504    0  1.58993753779E+01 -2.29052534421E+01  2.55490731179E+01  3.78179313929E+01  5.00000000000E-03  0.0000E+00  9.0
  3000022    1    4    4    0    0  9.09422182291E+01 -9.12839851610E+01 -6.33025100651E+01  1.55597110461E+02  6.00000000000E+01  0.0000E+00  9.0
</event>
<event>
10    1   3.4312288E-02   4.9990000E+02  -1.0000000E+00   9.3490000E-02
       11   -1    0    0    0    0  0.00000000000E+00  0.00000000000E+00  2.50000000000E+02  2.50000000000E+02  0.00000000000E+00  0.0000E+00  9.0
      -11   -1    0    0    0    0  0.00000000000E+00  0.00000000000E+00 -2.49938319800E+02  2.49938319800E+02  0.00000000000E+00  0.0000E+00  9.0
  3000025    2    1    2    0    0  1.50633419881E+02  7.66076656962E+01 -9.27397801065E+01  2.49606004974E+02  1.58566482198E+02  1.3330E-13  9.0
 -3000025    2    1    2    0    0 -1.50633419881E+02 -7.66076656962E+01  9.28014603045E+01  2.50332314824E+02  1.59671522765E+02  1.3256E-13  9.0
       14    1    3    3    0    0  3.00434389810E+01 -1.80086865045E+01  8.58861794338E+00  3.60650159240E+01  0.00000000000E+00  0.0000E+00  9.0
      -13    1    3    3    0    0  5.62639817097E+00  5.07432347660E+01 -2.87308580080E+01  5.85833219037E+01  1.05700000000E-01  0.0000E+00  9.0
  3000022    1    3    3    0    0  1.14963582730E+02  4.38731174345E+01 -7.25975400415E+01  1.54957667147E+02  6.00000000000E+01  0.0000E+00  9.0
       -4    1    4    4    0  500 -6.96659566001E+01 -1.70114924780E+00  7.07927316619E+01  9.93479028562E+01  1.46817165330E+00  0.0000E+00  9.0
        3    1    4    4  500    0 -4.08264805096E+01 -1.29360835203E+01 -1.96541610172E+01  4.71218613059E+01  2.00000000000E-01  0.0000E+00  9.0
  3000022    1    4    4    0    0 -4.01409827713E+01 -6.19704329285E+01  4.16628896595E+01  1.03862550662E+02  6.00000000000E+01  0.0000E+00  9.0
</event>
<event>
10    1   3.4312288E-02   5.0000000E+02  -1.0000000E+00   9.3490000E-02
       11   -1    0    0    0    0  0.00000000000E+00  0.00000000000E+00  2.50000000000E+02  2.50000000000E+02  0.00000000000E+00  0.0000E+00  9.0
      -11   -1    0    0    0    0  0.00000000000E+00  0.00000000000E+00 -2.49999998390E+02  2.49999998390E+02  0.00000000000E+00  0.0000E+00  9.0
  3000025    2    1    2    0    0 -1.30839309831E+02 -9.01740194965E+01  1.07844716830E+02  2.49974490603E+02  1.60020261889E+02  1.0902E-12  9.0
 -3000025    2    1    2    0    0  1.30839309831E+02  9.01740194965E+01 -1.07844715220E+02  2.50025507790E+02  1.60099947394E+02  3.0675E-12  9.0
        2    1    3    3  500    0 -4.76907064837E+01  9.98299599108E-01 -1.86509019901E+01  5.12177336579E+01  3.00000000000E-03  0.0000E+00  9.0
       -1    1    3    3    0  500 -5.27885527122E+00 -2.10060645829E+01  5.32968414043E+01  5.75297696060E+01  5.00000000000E-03  0.0000E+00  9.0
  3000022    1    3    3    0    0 -7.78697480760E+01 -7.01662545121E+01  7.31987774157E+01  1.41226987339E+02  6.00000000000E+01  0.0000E+00  9.0
       -2    1    4    4    0  504  8.89597478132E+01  4.37249988853E+00 -7.71172367562E+01  1.17813512384E+02  3.00000000000E-03  0.0000E+00  9.0
        1    1    4    4  504    0 -1.27643679183E+01  2.13181522940E+01 -3.99249639491E+00  2.51661033545E+01  5.00000000000E-03  0.0000E+00  9.0
  3000022    1    4    4    0    0  5.46439299366E+01  6.44833673135E+01 -2.67349820689E+01  1.07045892052E+02  6.00000000000E+01  0.0000E+00  9.0
</event>
<event>
10    1   3.4312288E-02   5.0000000E+02  -1.0000000E+00   9.3490000E-02
       11   -1    0    0    0    0  0.00000000000E+00  0.00000000000E+00  2.49999998660E+02  2.49999998660E+02  0.00000000000E+00  0.0000E+00  9.0
      -11   -1    0    0    0    0  0.00000000000E+00  0.00000000000E+00 -2.50000000000E+02  2.50000000000E+02  0.00000000000E+00  0.0000E+00  9.0
  3000025    2    1    2    0    0 -3.56128357560E+01 -1.49244548203E+02  1.15473222017E+02  2.49965852835E+02  1.60020790342E+02  6.0504E-13  9.0
 -3000025    2    1    2    0    0  3.56128357560E+01  1.49244548203E+02 -1.15473223357E+02  2.50034145826E+02  1.60127447765E+02  1.5109E-12  9.0
        4    1    3    3  500    0 -4.08770152862E+01 -8.99220115186E+00  8.42164294779E+00  4.27184931641E+01  1.46817165330E+00  0.0000E+00  9.0
       -3    1    3    3    0  500 -1.51428226860E+01 -9.85368077288E+01  7.55889657340E+01  1.25110108692E+02  2.00000000000E-01  0.0000E+00  9.0
  3000022    1    3    3    0    0  2.04070022167E+01 -4.17155393219E+01  3.14626133354E+01  8.21372509783E+01  6.00000000000E+01  0.0000E+00  9.0
       -4    1    4    4    0  504  2.29357716254E+01  3.94118174311E+01 -8.66940336482E+01  9.79660756154E+01  1.46817165330E+00  0.0000E+00  9.0
        3    1    4    4  504    0  7.65351800737E+00  8.30817680276E+01 -1.57953107640E+01  8.49157721428E+01  2.00000000000E-01  0.0000E+00  9.0
  3000022    1    4    4    0    0  5.02354612292E+00  2.67509627439E+01 -1.29838789450E+01  6.71522980682E+01  6.00000000000E+01  0.0000E+00  9.0
</event>
<event>
10    1   3.4312288E-02   4.9790000E+02  -1.0000000E+00   9.3540000E-02
       11   -1    0    0    0    0  0.00000000000E+00  0.00000000000E+00  2.48001719020E+02  2.48001719020E+02  0.00000000000E+00  0.0000E+00  9.0
      -11   -1    0    0    0    0  0.00000000000E+00  0.00000000000E+00 -2.49936797110E+02  2.49936797110E+02  0.00000000000E+00  0.0000E+00  9.0
  3000025    2    1    2    0    0  1.64760190286E+02  7.66373424830E+01 -5.90819933312E+01  2.49245865617E+02  1.60042547547E+02  2.5275E-12  9.0
 -3000025    2    1    2    0    0 -1.64760190286E+02 -7.66373424830E+01  5.71469152372E+01  2.48692650509E+02  1.59884526863E+02  2.2781E-12  9.0
        2    1    3    3  500    0  9.96667086707E+01  5.66765190120E+01 -1.27962755350E+01  1.15366482572E+02  3.00000000000E-03  0.0000E+00  9.0
       -1    1    3    3    0  500 -1.37432115543E+01  1.03504162483E+01  9.62548552055E+00  1.97143850233E+01  5.00000000000E-03  0.0000E+00  9.0
  3000022    1    3    3    0    0  7.88366931689E+01  9.61040722186E+00 -5.59112033167E+01  1.14164998021E+02  6.00000000000E+01  0.0000E+00  9.0
       -2    1    4    4    0  504 -3.77530481141E+00  2.03398488175E+01 -1.54961042704E+01  2.58474685974E+01  3.00000000000E-03  0.0000E+00  9.0
        1    1    4    4  504    0 -7.15742682777E+01 -2.32387611424E+01  5.01078827076E+01  9.04086048635E+01  5.00000000000E-03  0.0000E+00  9.0
  3000022    1    4    4    0    0 -8.94106171974E+01 -7.37384301576E+01  2.25351367998E+01  1.32436577048E+02  6.00000000000E+01  0.0000E+00  9.0
</event>
<event>
10    1   3.4312288E-02   4.9280000E+02  -1.0000000E+00   9.3650000E-02
       11   -1    0    0    0    0  0.00000000000E+00  0.00000000000E+00  2.44561187940E+02  2.44561187940E+02  0.00000000000E+00  0.0000E+00  9.0
      -11   -1    0    0    0    0  0.00000000000E+00  0.00000000000E+00 -2.48293707940E+02  2.48293707940E+02  0.00000000000E+00  0.0000E+00  9.0
  3000025    2    1    2    0    0  1.21890044190E+02  1.39311807023E+02 -3.38659247191E+01  2.46298173256E+02  1.58905402185E+02  2.5621E-12  9.0
 -3000025    2    1    2    0    0 -1.21890044190E+02 -1.39311807023E+02  3.01334047141E+01  2.46556722621E+02  1.60053843882E+02  4.3090E-13  9.0
       14    1    3    3    0    0 -2.28782508789E-01  1.08303966845E+01  3.07626102135E+01  3.26142303439E+01  0.00000000000E+00  0.0000E+00  9.0
      -13    1    3    3    0    0  6.75855350677E+01  8.08348064139E+01 -1.23522214039E+01  1.06087977757E+02  1.05700000000E-01  0.0000E+00  9.0
  3000022    1    3    3    0    0  5.45332916305E+01  4.76466039247E+01 -5.22763135283E+01  1.07595965155E+02  6.00000000000E+01  0.0000E+00  9.0
       -4    1    4    4    0  500 -2.91462740121E-01 -5.25123802615E+01 -3.02900010753E+01  6.06405369732E+01  1.46817165330E+00  0.0000E+00  9.0
        3    1    4    4  500    0 -4.74838824291E+01 -5.62181892744E+01  3.98436500678E+01  8.36824972534E+01  2.00000000000E-01  0.0000E+00  9.0
  3000022    1    4    4    0    0 -7.41146990206E+01 -3.05812374873E+01  2.05797557225E+01  1.02233688395E+02  6.00000000000E+01  0.0000E+00  9.0
</event>
<event>
10    1   3.4312288E-02   4.8860000E+02  -1.0000000E+00   9.3750000E-02
       11   -1    0    0    0    0  0.00000000000E+00  0.00000000000E+00  2.49994150750E+02  2.49994150750E+02  0.00000000000E+00  0.0000E+00  9.0
      -11   -1    0    0    0    0  0.00000000000E+00  0.00000000000E+00 -2.38708084740E+02  2.38708084740E+02  0.00000000000E+00  0.0000E+00  9.0
  3000025    2    1    2    0    0 -2.17670141297E+01 -1.82116897747E+02 -1.60950073724E+01  2.43853583085E+02  1.59891067205E+02  8.2177E-13  9.0
 -3000025    2    1    2    0    0  2.17670141297E+01  1.82116897747E+02  2.73810733804E+01  2.44848652396E+02  1.59877365664E+02  3.9961E-13  9.0
        2    1    3    3  500    0  2.98536853689E+01 -8.08213096358E+01 -2.76195413979E+01  9.04774319783E+01  3.00000000000E-03  0.0000E+00  9.0
       -1    1    3    3    0  500 -1.47244737797E+01 -5.43191444253E+01  3.40343250570E+01  6.57701671450E+01  5.00000000000E-03  0.0000E+00  9.0
  3000022    1    3    3    0    0 -3.68962257190E+01 -4.69764436851E+01 -2.25097910306E+01  8.76059839614E+01  6.00000000000E+01  0.0000E+00  9.0
      -14    1    4    4    0    0 -3.39912903227E+01  1.01003698625E+01 -7.05155041763E+00  3.61545246471E+01  0.00000000000E+00  0.0000E+00  9.0
       13    1    4    4    0    0  1.15271800115E+01  5.53743958606E+01  4.13981308051E+01  7.00929097883E+01  1.05700000000E-01  0.0000E+00  9.0
  3000022    1    4    4    0    0  4.42311244407E+01  1.16642132024E+02 -6.96550700706E+00  1.38601217961E+02  6.00000000000E+01  0.0000E+00  9.0
</event>
<event>
10    1   3.4312288E-02   5.0000000E+02  -1.0000000E+00   9.3490000E-02
       11   -1    0    0    0    0  0.00000000000E+00  0.00000000000E+00  2.49997909610E+02  2.49997909610E+02  0.00000000000E+00  0.0000E+00  9.0
      -11   -1    0    0    0    0  0.00000000000E+00  0.00000000000E+00 -2.49999998220E+02  2.49999998220E+02  0.00000000000E+00  0.0000E+00  9.0
  3000025    2    1    2    0    0 -1.41949757758E+02 -8.61132524877E+01 -9.48281691327E+01  2.49325970443E+02  1.60018223634E+02  8.5268E-13  9.0
 -3000025    2    1    2    0    0  1.41949757758E+02  8.61132524877E+01  9.48260805227E+01  2.50671937397E+02  1.62108632310E+02  3.8290E-13  9.0
        4    1    3    3  500    0 -8.22229146783E+01  3.57275269657E+00 -4.16903766374E+01  9.22692543169E+01  1.46817165330E+00  0.0000E+00  9.0
       -3    1    3    3    0  500 -5.33926600179E+01 -5.73900593919E+01 -3.73284882235E+01  8.68207987400E+01  2.00000000000E-01  0.0000E+00  9.0
  3000022    1    3    3    0    0 -6.33418306338E+00 -3.22959457926E+01 -1.58093042726E+01  7.02359173878E+01  6.00000000000E+01  0.0000E+00  9.0
       -4    1    4    4    0  504 -2.06478553851E+00  1.94459399078E+01  3.64639302154E+01  4.14026768818E+01  1.46817165330E+00  0.0000E+00  9.0
        3    1    4    4  504    0  1.23550063563E+02  5.72275790589E+01  4.78291617437E+01  1.44316605851E+02  2.00000000000E-01  0.0000E+00  9.0
  3000022    1    4    4    0    0  2.04644797335E+01  9.43973351996E+00  1.05329885634E+01  6.49526546630E+01  6.00000000000E+01  0.0000E+00  9.0
</event>
<event>
10    1   3.4312288E-02   4.7380000E+02  -1.0000000E+00   9.4090000E-02
       11   -1    0    0    0    0  0.00000000000E+00  0.00000000000E+00  2.44321929410E+02  2.44321929410E+02  0.00000000000E+00  0.0000E+00  9.0
      -11   -1    0    0    0    0  0.00000000000E+00  0.00000000000E+00 -2.29731586960E+02  2.29731586960E+02  0.00000000000E+00  0.0000E+00  9.0
  3000025    2    1    2    0    0  4.05296654682E+01 -1.69870940660E+02  1.65919078456E+01  2.37408751344E+02  1.59965101022E+02  9.5545E-13  9.0
 -3000025    2    1    2    0    0 -4.05296654682E+01  1.69870940660E+02 -2.00156539498E+00  2.36644765024E+02  1.59680769931E+02  2.7572E-13  9.0
        2    1    3    3  500    0  3.57822590730E+01 -2.20603346514E+01 -3.07530646923E+00  4.21483801371E+01  3.00000000000E-03  0.0000E+00  9.0
       -1    1    3    3    0  500  2.21551546156E+01 -1.23084863592E+02 -6.56367495334E-01  1.25064644743E+02  5.00000000000E-03  0.0000E+00  9.0
  3000022    1    3    3    0    0 -1.74077482202E+01 -2.47257424162E+01  2.03235818103E+01  7.01957264635E+01  6.00000000000E+01  0.0000E+00  9.0
       -2    1    4    4    0  504 -4.76361667441E+01  6.67572053344E+01  1.41041176132E+01  8.32145118881E+01  3.00000000000E-03  0.0000E+00  9.0
        1    1    4    4  504    0  1.46342295255E+01 -1.37043413764E+01 -8.16945238835E+00  2.16497026237E+01  5.00000000000E-03  0.0000E+00  9.0
  3000022    1    4    4    0    0 -7.52772824970E+00  1.16818076702E+02 -7.93623061999E+00  1.31780550512E+02  6.00000000000E+01  0.0000E+00  9.0
</event>
<event>
10    1   3.4312288E-02   4.6970000E+02  -1.0000000E+00   9.4190000E-02
       11   -1    0    0    0    0  0.00000000000E+00  0.00000000000E+00  2.40502618440E+02  2.40502618440E+02  0.00000000000E+00  0.0000E+00  9.0
      -11   -1    0    0    0    0  0.00000000000E+00  0.00000000000E+00 -2.29346853840E+02  2.29346853840E+02  0.00000000000E+00  0.0000E+00  9.0
  3000025    2    1    2    0    0 -1.44316190777E+02  3.72790501643E+01 -8.05057291699E+01  2.32758592004E+02  1.59619858480E+02  5.0570E-13  9.0
 -3000025    2    1    2    0    0  1.44316190777E+02 -3.72790501643E+01  9.16614937789E+01  2.37090880281E+02  1.59979266060E+02  2.0113E-12  9.0
        2    1    3    3  500    0 -5.93289547272E+01  1.17111000972E+01 -6.68291498222E+00  6.08418942519E+01  3.00000000000E-03  0.0000E+00  9.0
       -1    1    3    3    0  500 -2.96827411756E+01 -1.85714537217E+01 -7.09265144327E+01  7.90982584612E+01  5.00000000000E-03  0.0000E+00  9.0
  3000022    1    3    3    0    0 -5.53044948734E+01  4.41394037887E+01 -2.89629975488E+00  9.28184392904E+01  6.00000000000E+01  0.0000E+00  9.0
       -2    1    4    4    0  504  5.10554705485E+01 -4.39451216387E+01  4.85391285661E+01  8.30294032240E+01  3.00000000000E-03  0.0000E+00  9.0
        1    1    4    4  504    0  1.39605372239E+01  3.35943938986E+01  3.53827372355E+01  5.07485765344E+01  5.00000000000E-03  0.0000E+00  9.0
  3000022    1    4    4    0    0  7.93001830052E+01 -2.69283224242E+01  7.73962797740E+00  1.03312900523E+02  6.00000000000E+01  0.0000E+00  9.0
</event>
<event>
10    1   3.4312288E-02   4.9860000E+02  -1.0000000E+00   9.3520000E-02
       11   -1    0    0    0    0  0.00000000000E+00  0.00000000000E+00  2.48563036990E+02  2.48563036990E+02  0.00000000000E+00  0.0000E+00  9.0
      -11   -1    0    0    0    0  0.00000000000E+00  0.00000000000E+00 -2.49999193690E+02  2.49999193690E+02  0.00000000000E+00  0.0000E+00  9.0
  3000025    2    1    2    0    0 -1.71672851784E+02 -8.67725774987E-01 -8.48683099151E+01  2.49533180999E+02  1.59974552363E+02  6.4516E-13  9.0
 -3000025    2    1    2    0    0  1.71672851784E+02  8.67725774987E-01  8.34321532201E+01  2.49029049687E+02  1.59944435381E+02  1.4665E-12  9.0
        4    1    3    3  500    0 -9.05368184770E+01 -1.23263570832E+01 -2.31007724762E+01  9.42584521191E+01  1.46817165330E+00  0.0000E+00  9.0
       -3    1    3    3    0  500 -7.99340664542E+00 -2.09098081174E+01 -4.97659071718E+01  5.45692233950E+01  2.00000000000E-01  0.0000E+00  9.0
  3000022    1    3    3    0    0 -7.31426266619E+01  3.23684394256E+01 -1.20016302671E+01  1.00705505485E+02  6.00000000000E+01  0.0000E+00  9.0
      -14    1    4    4    0    0  6.97065445997E+01 -2.90710538750E+01  7.45281132461E+00  7.58925090511E+01  0.00000000000E+00  0.0000E+00  9.0
       13    1    4    4    0    0 -1.23663380732E+01  1.83774274939E+01 -1.34291667346E+00  2.21916821425E+01  1.05700000000E-01  0.0000E+00  9.0
  3000022    1    4    4    0    0  1.14332645258E+02  1.15613521562E+01  7.73222585690E+01  1.50944858493E+02  6.00000000000E+01  0.0000E+00  9.0
</event>
<event>
10    1   3.4312288E-02   4.9790000E+02  -1.0000000E+00   9.3540000E-02
       11   -1    0    0    0    0  0.00000000000E+00  0.00000000000E+00  2.47964403000E+02  2.47964403000E+02  0.00000000000E+00  0.0000E+00  9.0
      -11   -1    0    0    0    0  0.00000000000E+00  0.00000000000E+00 -2.49958089360E+02  2.49958089360E+02  0.00000000000E+00  0.0000E+00  9.0
  3000025    2    1    2    0    0  4.35783359074E+01 -1.30720090245E+02  1.30871583022E+02  2.48408672612E+02  1.59977135967E+02  2.2980E-12  9.0
 -3000025    2    1    2    0    0 -4.35783359074E+01  1.30720090245E+02 -1.32865269382E+02  2.49513819750E+02  1.60053594412E+02  3.3784E-12  9.0
        4    1    3    3  500    0 -1.26088135348E+01  1.84761331905E+00  4.80472632973E+01  4.97301808975E+01  1.46817165330E+00  0.0000E+00  9.0
       -3    1    3    3    0  500  6.10601873308E+01 -5.57996175629E+01  4.39029946166E+01  9.36453775333E+01  2.00000000000E-01  0.0000E+00  9.0
  3000022    1    3    3    0    0 -4.87303788958E+00 -7.67680860007E+01  3.89213251085E+01  1.05033114182E+02  6.00000000000E+01  0.0000E+00  9.0
       -4    1    4    4    0  504 -3.92071272754E+01  1.05581727130E+02 -4.30322354301E+01  1.20576236245E+02  1.46817165330E+00  0.0000E+00  9.0
        3    1    4    4  504    0  1.43975176723E+01  1.59918935091E+01 -4.87338443233E+01  5.32734150928E+01  2.00000000000E-01  0.0000E+00  9.0
  3000022    1    4    4    0    0 -1.87687263040E+01  9.14646960510E+00 -4.10991896275E+01  7.56641684111E+01  6.00000000000E+01  0.0000E+00  9.0
</event>
<event>
10    1   3.4312288E-02   4.8920000E+02  -1.0000000E+00   9.3730000E-02
       11   -1    0    0    0    0  0.00000000000E+00  0.00000000000E+00  2.50000000000E+02  2.50000000000E+02  0.00000000000E+00  0.0000E+00  9.0
      -11   -1    0    0    0    0  0.00000000000E+00  0.00000000000E+00 -2.39322589290E+02  2.39322589290E+02  0.00000000000E+00  0.0000E+00  9.0
  3000025    2    1    2    0    0  2.39904469183E+01 -1.77738838362E+02  5.01425241148E+01  2.45716088458E+02  1.60298119754E+02  3.9604E-12  9.0
 -3000025    2    1    2    0    0 -2.39904469183E+01  1.77738838362E+02 -3.94651134068E+01  2.43606500840E+02  1.60062474896E+02  1.1001E-12  9.0
        4    1    3    3  500    0  4.49732372486E+01 -2.33842377659E+01 -1.68836297722E+01  5.34474239491E+01  1.46817165330E+00  0.0000E+00  9.0
       -3    1    3    3    0  500  7.65911690282E+00 -7.92915215696E+01  3.49394291369E+01  8.69862700256E+01  2.00000000000E-01  0.0000E+00  9.0
  3000022    1    3    3    0    0 -2.86419072329E+01 -7.50630790269E+01  3.20867247501E+01  1.05282394483E+02  6.00000000000E+01  0.0000E+00  9.0
       -2    1    4    4    0  504 -2.93597012004E+01  6.21657384308E+01 -4.53843916760E+01  8.23790877955E+01  3.00000000000E-03  0.0000E+00  9.0
        1    1    4    4  504    0  3.30486520261E+01  7.88294392344E+01  1.44015014958E+00  8.54889931407E+01  5.00000000000E-03  0.0000E+00  9.0
  3000022    1    4    4    0    0 -2.76793977450E+01  3.67436606976E+01  4.47912811854E+00  7.57384199049E+01  6.00000000000E+01  0.0000E+00  9.0
</event>
<event>
10    1   3.4312288E-02   4.9610000E+02  -1.0000000E+00   9.3580000E-02
       11   -1    0    0    0    0  0.00000000000E+00  0.00000000000E+00  2.46817760460E+02  2.46817760460E+02  0.00000000000E+00  0.0000E+00  9.0
      -11   -1    0    0    0    0  0.00000000000E+00  0.00000000000E+00 -2.49333812270E+02  2.49333812270E+02  0.00000000000E+00  0.0000E+00  9.0
  3000025    2    1    2    0    0  1.80426099398E+02  5.68259114493E+01 -1.27428822997E+01  2.48212677086E+02  1.60201093820E+02  9.6480E-13  9.0
 -3000025    2    1    2    0    0 -1.80426099398E+02 -5.68259114493E+01  1.02268304867E+01  2.47938895642E+02  1.59957326666E+02  1.2596E-13  9.0
       14    1    3    3    0    0  5.26224293857E+01  3.67264461190E+01 -4.20702644757E+01  7.67323860702E+01  0.00000000000E+00  0.0000E+00  9.0
      -13    1    3    3    0    0  7.77613436324E+01 -2.06709270539E+01  8.37771966370E+00  8.08969168018E+01  1.05700000000E-01  0.0000E+00  9.0
  3000022    1    3    3    0    0  5.00423263790E+01  4.07703923831E+01  2.09496625123E+01  9.05833742133E+01  6.00000000000E+01  0.0000E+00  9.0
       -2    1    4    4    0  500 -8.61864546123E+01 -2.54794304707E+01 -1.86556894174E+01  9.17896567833E+01  3.00000000000E-03  0.0000E+00  9.0
        1    1    4    4  500    0 -1.52566920872E+01  3.22023132578E+01  7.81508213982E+00  3.64805587464E+01  5.00000000000E-03  0.0000E+00  9.0
  3000022    1    4    4    0    0 -7.89829526984E+01 -6.35487942358E+01  2.10674377642E+01  1.19668680112E+02  6.00000000000E+01  0.0000E+00  9.0
</event>
<event>
10    1   3.4312288E-02   4.9990000E+02  -1.0000000E+00   9.3490000E-02
       11   -1    0    0    0    0  0.00000000000E+00  0.00000000000E+00  2.49875777290E+02  2.49875777290E+02  0.00000000000E+00  0.0000E+00  9.0
      -11   -1    0    0    0    0  0.00000000000E+00  0.00000000000E+00 -2.50000000000E+02  2.50000000000E+02  0.00000000000E+00  0.0000E+00  9.0
  3000025    2    1    2    0    0 -1.09285926966E+02 -2.37186629491E+01  1.57465585985E+02  2.48992737155E+02  1.57149558006E+02  1.4295E-12  9.0
 -3000025    2    1    2    0    0  1.09285926966E+02  2.37186629491E+01 -1.57589808695E+02  2.50883040134E+02  1.60005509960E+02  2.5546E-13  9.0
        4    1    3    3  500    0  5.84462426133E+00 -3.42513992411E+01  3.63830360561E+01  5.03308933300E+01  1.46817165330E+00  0.0000E+00  9.0
       -3    1    3    3    0  500 -5.39120282107E+01  1.49136724736E+01  9.26829794981E+01  1.08254787890E+02  2.00000000000E-01  0.0000E+00  9.0
  3000022    1    3    3    0    0 -6.12185230169E+01 -4.38093618187E+00  2.83995704309E+01  9.04070559352E+01  6.00000000000E+01  0.0000E+00  9.0
       -2    1    4    4    0  504  4.17345043631E+01  2.57523905647E+01 -1.08708046939E+02  1.19257678799E+02  3.00000000000E-03  0.0000E+00  9.0
        1    1    4    4  504    0  4.83501918437E+01  1.82675356777E+01 -4.38688297228E+00  5.18718486105E+01  5.00000000000E-03  0.0000E+00  9.0
  3000022    1    4    4    0    0  1.92012307592E+01 -2.03012632933E+01 -4.44948787854E+01  7.97535127258E+01  6.00000000000E+01  0.0000E+00  9.0
</event>
<event>
10    1   3.4312288E-02   4.5130000E+02  -1.0000000E+00   9.4640000E-02
       11   -1    0    0    0    0  0.00000000000E+00  0.00000000000E+00  2.16178588200E+02  2.16178588200E+02  0.00000000000E+00  0.0000E+00  9.0
      -11   -1    0    0    0    0  0.00000000000E+00  0.00000000000E+00 -2.35581853950E+02  2.35581853950E+02  0.00000000000E+00  0.0000E+00  9.0
  3000025    2    1    2    0    0 -5.85469877998E+01  1.43904467600E+02  2.62324921451E+01  2.24315323587E+02  1.59665197136E+02  1.0115E-12  9.0
 -3000025    2    1    2    0    0  5.85469877998E+01 -1.43904467600E+02 -4.56357579021E+01  2.27445118567E+02  1.59726059192E+02  3.1380E-12  9.0
        2    1    3    3  500    0 -2.14882609447E+01  4.99211892009E+01 -2.34377231681E+01  5.91878143368E+01  3.00000000000E-03  0.0000E+00  9.0
       -1    1    3    3    0  500  2.99678738346E+01  1.78456221826E+01  2.92445027083E+01  4.55168172976E+01  5.00000000000E-03  0.0000E+00  9.0
  3000022    1    3    3    0    0 -6.70266006894E+01  7.61376562156E+01  2.04257126048E+01  1.19610691953E+02  6.00000000000E+01  0.0000E+00  9.0
       -2    1    4    4    0  504  3.01311972378E+01 -6.67830473769E+01 -6.62345561219E+01  9.87668005840E+01  3.00000000000E-03  0.0000E+00  9.0
        1    1    4    4  504    0 -1.19438563728E+01  6.08434322631E+00  1.21954562994E+01  1.81219236534E+01  5.00000000000E-03  0.0000E+00  9.0
  3000022    1    4    4    0    0  4.03596469339E+01 -8.32057634490E+01  8.40334191943E+00  1.10556394330E+02  6.00000000000E+01  0.0000E+00  9.0
</event>
<event>
10    1   3.4312288E-02   4.3290000E+02  -1.0000000E+00   9.5110000E-02
       11   -1    0    0    0    0  0.00000000000E+00  0.00000000000E+00  1.87370187420E+02  1.87370187420E+02  0.00000000000E+00  0.0000E+00  9.0
      -11   -1    0    0    0    0  0.00000000000E+00  0.00000000000E+00 -2.49996756810E+02  2.49996756810E+02  0.00000000000E+00  0.0000E+00  9.0
  3000025    2    1    2    0    0 -1.72782828512E+01  1.29153723664E+02 -9.73180121983E+01  2.28160475814E+02  1.60022447897E+02  5.8525E-12  9.0
 -3000025    2    1    2    0    0  1.72782828512E+01 -1.29153723664E+02  3.46914428103E+01  2.09206468418E+02  1.59951951627E+02  4.6156E-12  9.0
        2    1    3    3  500    0 -3.04932789159E+01  6.63093364084E+00 -5.65430688232E-01  3.12110406885E+01  3.00000000000E-03  0.0000E+00  9.0
       -1    1    3    3    0  500 -2.81026502818E+00  9.99678002284E+01 -8.18150087264E+01  1.29209730090E+02  5.00000000000E-03  0.0000E+00  9.0
  3000022    1    3    3    0    0  1.60252610921E+01  2.25549897963E+01 -1.49375727850E+01  6.77397050369E+01  6.00000000000E+01  0.0000E+00  9.0
       -4    1    4    4    0  504  1.30350827919E+01 -4.25243492242E+01  4.94446162451E+01  6.65218705687E+01  1.46817165330E+00  0.0000E+00  9.0
        3    1    4    4  504    0 -4.10709206209E+00  1.42239693060E+01 -2.00412703931E+01  2.49175044295E+01  2.00000000000E-01  0.0000E+00  9.0
  3000022    1    4    4    0    0  8.35029212136E+00 -1.00853343745E+02  5.28809695823E+00  1.17767093420E+02  6.00000000000E+01  0.0000E+00  9.0
</event>
<event>
10    1   3.4312288E-02   5.0000000E+02  -1.0000000E+00   9.3490000E-02
       11   -1    0    0    0    0  0.00000000000E+00  0.00000000000E+00  2.50000000000E+02  2.50000000000E+02  0.00000000000E+00  0.0000E+00  9.0
      -11   -1    0    0    0    0  0.00000000000E+00  0.00000000000E+00 -2.50000000000E+02  2.50000000000E+02  0.00000000000E+00  0.0000E+00  9.0
  3000025    2    1    2    0    0 -4.91476763283E+01 -1.73960399318E+02  6.49188342650E+01  2.49998823354E+02  1.60022629702E+02  5.9166E-13  9.0
 -3000025    2    1    2    0    0  4.91476763283E+01  1.73960399318E+02 -6.49188342650E+01  2.50001176650E+02  1.60026306166E+02  6.2622E-13  9.0
        4    1    3    3  500    0 -2.52412200400E+01 -8.71117537587E+01  1.81053822968E+01  9.24961470989E+01  1.46817165330E+00  0.0000E+00  9.0
       -3    1    3    3    0  500 -3.41766615847E+01  1.74091356557E+00  3.56822352978E+01  4.94402355675E+01  2.00000000000E-01  0.0000E+00  9.0
  3000022    1    3    3    0    0  1.02702052964E+01 -8.85895591246E+01  1.11312166706E+01  1.08062440687E+02  6.00000000000E+01  0.0000E+00  9.0
       -2    1    4    4    0  504  5.25893586568E+01  8.82608830181E+01  3.51051519081E+00  1.02800524517E+02  3.00000000000E-03  0.0000E+00  9.0
        1    1    4    4  504    0 -1.73811230830E+01  6.15218527437E+01 -3.79517794695E+01  7.43463475535E+01  5.00000000000E-03  0.0000E+00  9.0
  3000022    1    4    4    0    0  1.39394407550E+01  2.41776635560E+01 -3.04775699862E+01  7.28543045801E+01  6.00000000000E+01  0.0000E+00  9.0
</event>
<event>
10    1   3.4312288E-02   4.9360000E+02  -1.0000000E+00   9.3630000E-02
       11   -1    0    0    0    0  0.00000000000E+00  0.00000000000E+00  2.49483271410E+02  2.49483271410E+02  0.00000000000E+00  0.0000E+00  9.0
      -11   -1    0    0    0    0  0.00000000000E+00  0.00000000000E+00 -2.44116562780E+02  2.44116562780E+02  0.00000000000E+00  0.0000E+00  9.0
  3000025    2    1    2    0    0 -1.55217525756E+02 -8.79824997908E+01  6.15374569020E+01  2.47474492785E+02  1.60073000239E+02  2.1589E-14  9.0
 -3000025    2    1    2    0    0  1.55217525756E+02  8.79824997908E+01 -5.61707482720E+01  2.46125341406E+02  1.59966028110E+02  1.9607E-12  9.0
        4    1    3    3  500    0 -1.94043182346E+01 -7.00461697215E+01 -2.15537947991E+00  7.27309744711E+01  1.46817165330E+00  0.0000E+00  9.0
       -3    1    3    3    0  500 -1.38309720516E+01  1.45576271040E+01 -2.23528784178E+00  2.02053657855E+01  2.00000000000E-01  0.0000E+00  9.0
  3000022    1    3    3    0    0 -1.21982235470E+02 -3.24939571733E+01  6.59281242240E+01  1.54538152528E+02  6.00000000000E+01  0.0000E+00  9.0
       -2    1    4    4    0  504 -5.26665311990E+00  4.25398497730E+01 -3.17054247362E+01  5.33161365864E+01  3.00000000000E-03  0.0000E+00  9.0
        1    1    4    4  504    0  7.23252257034E+01  1.40104989425E+00 -2.75092012127E+01  7.73928768700E+01  5.00000000000E-03  0.0000E+00  9.0
  3000022    1    4    4    0    0  8.81589531717E+01  4.40416001237E+01  3.04387767703E+00  1.15416327948E+02  6.00000000000E+01  0.0000E+00  9.0
</event>
<event>
10    1   3.4312288E-02   4.8180000E+02  -1.0000000E+00   9.3900000E-02
       11   -1    0    0    0    0  0.00000000000E+00  0.00000000000E+00  2.32135571020E+02  2.32135571020E+02  0.00000000000E+00  0.0000E+00  9.0
      -11   -1    0    0    0    0  0.00000000000E+00  0.00000000000E+00 -2.49995885590E+02  2.49995885590E+02  0.00000000000E+00  0.0000E+00  9.0
  3000025    2    1    2    0    0  1.46927085991E+02  7.94512496104E+01  5.85766754097E+01  2.38543850410E+02  1.59912075855E+02  1.1374E-13  9.0
 -3000025    2    1    2    0    0 -1.46927085991E+02 -7.94512496104E+01 -7.64369899827E+01  2.43587606197E+02  1.59975744389E+02  1.1778E-12  9.0
        4    1    3    3  500    0 -8.64164400161E+00  4.55187383097E+00  2.08321670139E+01  2.30549837762E+01  1.46817165330E+00  0.0000E+00  9.0
       -3    1    3    3    0  500  1.17746687008E+02  1.67376443496E+01  3.39717038380E+01  1.23687298060E+02  2.00000000000E-01  0.0000E+00  9.0
  3000022    1    3    3    0    0  3.78220429840E+01  5.81617314302E+01  3.77280455800E+00  9.18015685742E+01  6.00000000000E+01  0.0000E+00  9.0
       -4    1    4    4    0  504 -2.92992303789E+01 -5.22056170468E+01 -3.31501690120E+01  6.84467719148E+01  1.46817165330E+00  0.0000E+00  9.0
        3    1    4    4  504    0 -1.99497470849E+01  3.22265733019E+01 -2.32159203753E+01  4.44473103169E+01  2.00000000000E-01  0.0000E+00  9.0
  3000022    1    4    4    0    0 -9.76781085255E+01 -5.94722058653E+01 -2.00709005955E+01  1.30693523965E+02  6.00000000000E+01  0.0000E+00  9.0
</event>
<event>
10    1   3.4312288E-02   4.8030000E+02  -1.0000000E+00   9.3940000E-02
       11   -1    0    0    0    0  0.00000000000E+00  0.00000000000E+00  2.49974103310E+02  2.49974103310E+02  0.00000000000E+00  0.0000E+00  9.0
      -11   -1    0    0    0    0  0.00000000000E+00  0.00000000000E+00 -2.30696934600E+02  2.30696934600E+02  0.00000000000E+00  0.0000E+00  9.0
  3000025    2    1    2    0    0  1.01624463635E+02  1.37898882179E+02  6.16199030734E+01  2.42350724727E+02  1.59978836119E+02  1.0310E-13  9.0
 -3000025    2    1    2    0    0 -1.01624463635E+02 -1.37898882179E+02 -4.23427343634E+01  2.38320313177E+02  1.60187487664E+02  7.6685E-13  9.0
        2    1    3    3  500    0  5.79150574839E+01  1.04709330164E+02  2.46265224252E+01  1.22166539292E+02  3.00000000000E-03  0.0000E+00  9.0
       -1    1    3    3    0  500  4.32627117460E+01 -1.93930836505E+00  2.37987063577E+01  4.94145888767E+01  5.00000000000E-03  0.0000E+00  9.0
  3000022    1    3    3    0    0  4.46694404669E-01  3.51288603796E+01  1.31946742909E+01  7.07695965589E+01  6.00000000000E+01  0.0000E+00  9.0
       -4    1    4    4    0  504  1.64506318797E+01  9.80394073200E+00 -5.55621315076E+00  1.99941885482E+01  1.46817165330E+00  0.0000E+00  9.0
        3    1    4    4  504    0 -4.29765135582E+01 -7.38475742960E+01 -4.54822093937E+01  9.67941956852E+01  2.00000000000E-01  0.0000E+00  9.0
  3000022    1    4    4    0    0 -7.50985819569E+01 -7.38552486148E+01  8.69568818105E+00  1.21531928944E+02  6.00000000000E+01  0.0000E+00  9.0
</event>
<event>
10    1   3.4312288E-02   4.9820000E+02  -1.0000000E+00   9.3530000E-02
       11   -1    0    0    0    0  0.00000000000E+00  0.00000000000E+00  2.48233317870E+02  2.48233317870E+02  0.00000000000E+00  0.0000E+00  9.0
      -11   -1    0    0    0    0  0.00000000000E+00  0.00000000000E+00 -2.49999993140E+02  2.49999993140E+02  0.00000000000E+00  0.0000E+00  9.0
  3000025    2    1    2    0    0 -4.65693808121E+01  8.61590167192E+01 -1.64965808488E+02  2.49824825134E+02  1.60020754567E+02  2.1655E-12  9.0
 -3000025    2    1    2    0    0  4.65693808121E+01 -8.61590167192E+01  1.63199133218E+02  2.48408485872E+02  1.59626862962E+02  5.8428E-13  9.0
       14    1    3    3    0    0 -9.38097083160E+00  6.78605048476E+01 -1.92377921853E+01  7.11557684244E+01  0.00000000000E+00  0.0000E+00  9.0
      -13    1    3    3    0    0 -2.11892116973E+01 -1.96499877435E+01 -2.78345891636E+01  4.01233128875E+01  1.05700000000E-01  0.0000E+00  9.0
  3000022    1    3    3    0    0 -1.59991982829E+01  3.79484996155E+01 -1.17893427139E+02  1.38545743822E+02  6.00000000000E+01  0.0000E+00  9.0
       -4    1    4    4    0  500  1.21732065202E+01 -7.40203954871E+01  7.89351795033E+01  1.08904196413E+02  1.46817165330E+00  0.0000E+00  9.0
        3    1    4    4  500    0  4.84947063676E+01 -8.89298877576E-01  3.82257316857E+01  6.17557605497E+01  2.00000000000E-01  0.0000E+00  9.0
  3000022    1    4    4    0    0 -1.40985320755E+01 -1.12493223557E+01  4.60382220289E+01  7.77485289104E+01  6.00000000000E+01  0.0000E+00  9.0
</event>
<event>
10    1   3.4312288E-02   4.9900000E+02  -1.0000000E+00   9.3510000E-02
       11   -1    0    0    0    0  0.00000000000E+00  0.00000000000E+00  2.49048724850E+02  2.49048724850E+02  0.00000000000E+00  0.0000E+00  9.0
      -11   -1    0    0    0    0  0.00000000000E+00  0.00000000000E+00 -2.49998767400E+02  2.49998767400E+02  0.00000000000E+00  0.0000E+00  9.0
  3000025    2    1    2    0    0 -1.33939655405E+02  1.13279726299E+02 -7.72600973305E+01  2.49683465898E+02  1.60001821312E+02  2.7863E-12  9.0
 -3000025    2    1    2    0    0  1.33939655405E+02 -1.13279726299E+02  7.63100547795E+01  2.49364026354E+02  1.59959574577E+02  1.8311E-13  9.0
        2    1    3    3  500    0 -4.89871667798E+01  3.04042973407E+01 -8.68028920256E+01  1.04206074098E+02  3.00000000000E-03  0.0000E+00  9.0
       -1    1    3    3    0  500 -4.81595396893E+01  3.94376339754E+01  2.32007199342E-01  6.22472657150E+01  5.00000000000E-03  0.0000E+00  9.0
  3000022    1    3    3    0    0 -3.67929489365E+01  4.34377949827E+01  9.31078749574E+00  8.32301260854E+01  6.00000000000E+01  0.0000E+00  9.0
       -2    1    4    4    0  504 -9.79896006788E-01 -3.32781428016E+01  2.08278125041E+01  3.92707622439E+01  3.00000000000E-03  0.0000E+00  9.0
        1    1    4    4  504    0  6.16936197703E+01  2.09673617829E-01 -2.00031431366E+01  6.48557818836E+01  5.00000000000E-03  0.0000E+00  9.0
  3000022    1    4    4    0    0  7.32259316415E+01 -8.02112571154E+01  7.54853854124E+01  1.45237482227E+02  6.00000000000E+01  0.0000E+00  9.0
</event>
<event>
10    1   3.4312288E-02   4.7290000E+02  -1.0000000E+00   9.4110000E-02
       11   -1    0    0    0    0  0.00000000000E+00  0.00000000000E+00  2.23762226220E+02  2.23762226220E+02  0.00000000000E+00  0.0000E+00  9.0
      -11   -1    0    0    0    0  0.00000000000E+00  0.00000000000E+00 -2.49858083400E+02  2.49858083400E+02  0.00000000000E+00  0.0000E+00  9.0
  3000025    2    1    2    0    0 -1.68460557254E+02 -4.06965378749E+01 -2.96142698220E+01  2.37697259829E+02  1.59961916743E+02  1.2451E-13  9.0
 -3000025    2    1    2    0    0  1.68460557254E+02  4.06965378749E+01  3.51841264431E+00  2.35923049800E+02  1.60037928799E+02  1.3884E-12  9.0
        4    1    3    3  500    0 -8.50941960715E-01  8.20829126867E+00  3.56148046915E+01  3.65878393594E+01  1.46817165330E+00  0.0000E+00  9.0
       -3    1    3    3    0  500 -6.12129169227E+01 -9.89070212785E+00 -2.08068607421E+01  6.54049894175E+01  2.00000000000E-01  0.0000E+00  9.0
  3000022    1    3    3    0    0 -1.06396698372E+02 -3.90141270154E+01 -4.44222137715E+01  1.35704431053E+02  6.00000000000E+01  0.0000E+00  9.0
       -2    1    4    4    0  504  4.59358650741E+00 -2.03219997863E+01  2.27583843776E+01  3.08549636330E+01  3.00000000000E-03  0.0000E+00  9.0
        1    1    4    4  504    0  9.21643509586E+01  4.39137986874E+01  1.67098706624E+01  1.03450031925E+02  5.00000000000E-03  0.0000E+00  9.0
  3000022    1    4    4    0    0  7.17026197876E+01  1.71047389735E+01 -3.59498423947E+01  1.01618054242E+02  6.00000000000E+01  0.0000E+00  9.0
</event>
<event>
10    1   3.4312288E-02   4.3390000E+02  -1.0000000E+00   9.5090000E-02
       11   -1    0    0    0    0  0.00000000000E+00  0.00000000000E+00  2.46245161770E+02  2.46245161770E+02  0.00000000000E+00  0.0000E+00  9.0
      -11   -1    0    0    0    0  0.00000000000E+00  0.00000000000E+00 -1.91136901300E+02  1.91136901300E+02  0.00000000000E+00  0.0000E+00  9.0
  3000025    2    1    2    0    0 -1.25432981154E+02  5.21407890582E+01 -2.77992440666E+01  2.11683932253E+02  1.59953726304E+02  1.6843E-12  9.0
 -3000025    2    1    2    0    0  1.25432981154E+02 -5.21407890582E+01  8.29075045286E+01  2.25698130813E+02  1.60043423172E+02  7.2006E-14  9.0
       14    1    3    3    0    0 -7.06119796373E+01  2.53088908039E+01  4.42975797039E+01  8.71141044243E+01  0.00000000000E+00  0.0000E+00  9.0
      -13    1    3    3    0    0  1.32028205526E+00  1.62547499395E+01 -2.32331424417E+01  2.83857379771E+01  1.05700000000E-01  0.0000E+00  9.0
  3000022    1    3    3    0    0 -5.61412835712E+01  1.05771483145E+01 -4.88636813288E+01  9.61840898511E+01  6.00000000000E+01  0.0000E+00  9.0
       -2    1    4    4    0  500  2.92184707213E+01 -3.06296084021E+01 -4.66082535903E+00  4.25865617793E+01  3.00000000000E-03  0.0000E+00  9.0
        1    1    4    4  500    0  9.08239999299E+00 -1.82029834017E+00  7.40839773769E+01  7.46608277791E+01  5.00000000000E-03  0.0000E+00  9.0
  3000022    1    4    4    0    0  8.71321104399E+01 -1.96908823161E+01  1.34843525108E+01  1.08450741255E+02  6.00000000000E+01  0.0000E+00  9.0
</event>
<event>
10    1   3.4312288E-02   4.9980000E+02  -1.0000000E+00   9.3500000E-02
       11   -1    0    0    0    0  0.00000000000E+00  0.00000000000E+00  2.50000000000E+02  2.50000000000E+02  0.00000000000E+00  0.0000E+00  9.0
      -11   -1    0    0    0    0  0.00000000000E+00  0.00000000000E+00 -2.49802139990E+02  2.49802139990E+02  0.00000000000E+00  0.0000E+00  9.0
  3000025    2    1    2    0    0  1.65524230745E+02 -7.30173476624E+01 -6.43928781987E+01  2.49746516302E+02  1.59678037372E+02  7.5060E-13  9.0
 -3000025    2    1    2    0    0 -1.65524230745E+02  7.30173476624E+01  6.45907382067E+01  2.50055623688E+02  1.60081377594E+02  1.4770E-12  9.0
        2    1    3    3  500    0  5.07937863866E+01 -4.77315171025E+01 -1.62405028955E+01  7.15685713403E+01  3.00000000000E-03  0.0000E+00  9.0
       -1    1    3    3    0  500  7.40222243087E+01  2.89605390649E+01 -1.07696007560E+01  8.02121364881E+01  5.00000000000E-03  0.0000E+00  9.0
  3000022    1    3    3    0    0  4.07082200494E+01 -5.42463696247E+01 -3.73827745471E+01  9.79658084736E+01  6.00000000000E+01  0.0000E+00  9.0
       -4    1    4    4    0  504  1.35929339340E+01  1.85656250402E+01  4.37982532505E+00  2.34688875737E+01  1.46817165330E+00  0.0000E+00  9.0
        3    1    4    4  504    0 -8.53971221418E+01  2.14176394082E+01 -1.35134004768E+01  8.90732043903E+01  2.00000000000E-01  0.0000E+00  9.0
  3000022    1    4    4    0    0 -9.37200425376E+01  3.30340832141E+01  7.37243133580E+01  1.37513531724E+02  6.00000000000E+01  0.0000E+00  9.0
</event>
<event>
10    1   3.4312288E-02   5.0000000E+02  -1.0000000E+00   9.3490000E-02
       11   -1    0    0    0    0  0.00000000000E+00  0.00000000000E+00  2.49954069090E+02  2.49954069090E+02  0.00000000000E+00  0.0000E+00  9.0
      -11   -1    0    0    0    0  0.00000000000E+00  0.00000000000E+00 -2.49996073880E+02  2.49996073880E+02  0.00000000000E+00  0.0000E+00  9.0
  3000025    2    1    2    0    0  6.92248575534E+01  1.64856398965E+02  7.00360480411E+01  2.49980838064E+02  1.60048924367E+02  3.1215E-12  9.0
 -3000025    2    1    2    0    0 -6.92248575534E+01 -1.64856398965E+02 -7.00780528381E+01  2.49969304908E+02  1.60012520522E+02  6.3687E-14  9.0
       14    1    3    3    0    0 -1.04303058671E+01 -7.45587465663E+00 -1.04067261654E+01  1.65130644296E+01  0.00000000000E+00  0.0000E+00  9.0
      -13    1    3    3    0    0  6.85784772592E+01  7.59959471529E+01  1.95633556648E+01  1.04216733705E+02  1.05700000000E-01  0.0000E+00  9.0
  3000022    1    3    3    0    0  1.10766861612E+01  9.63163264682E+01  6.08794185412E+01  1.29251039928E+02  6.00000000000E+01  0.0000E+00  9.0
       -2    1    4    4    0  500 -3.14379638313E+01 -3.18724703514E+00  2.25966041704E+01  3.88472732963E+01  3.00000000000E-03  0.0000E+00  9.0
        1    1    4    4  500    0 -2.16821611160E+01 -4.78343173174E+01 -5.50665114600E+01  7.60957208603E+01  5.00000000000E-03  0.0000E+00  9.0
  3000022    1    4    4    0    0 -1.61047326055E+01 -1.13834834612E+02 -3.76081455489E+01  1.35026310751E+02  6.00000000000E+01  0.0000E+00  9.0
</event>
<event>
10    1   3.4312288E-02   4.9990000E+02  -1.0000000E+00   9.3490000E-02
       11   -1    0    0    0    0  0.00000000000E+00  0.00000000000E+00  2.49977453520E+02  2.49977453520E+02  0.00000000000E+00  0.0000E+00  9.0
      -11   -1    0    0    0    0  0.00000000000E+00  0.00000000000E+00 -2.49965930050E+02  2.49965930050E+02  0.00000000000E+00  0.0000E+00  9.0
  3000025    2    1    2    0    0  1.07826857179E+02 -1.52785063856E+02  4.45184622434E+01  2.49922011179E+02  1.59716033400E+02  3.6947E-12  9.0
 -3000025    2    1    2    0    0 -1.07826857179E+02  1.52785063856E+02 -4.45069387694E+01  2.50021372387E+02  1.59874676497E+02  4.4125E-13  9.0
        4    1    3    3  500    0  5.26248701579E+01 -9.27712530617E+01  2.75128064605E+01  1.10158941540E+02  1.46817165330E+00  0.0000E+00  9.0
       -3    1    3    3    0  500 -7.05705153437E+00 -2.48582859813E+01 -2.62970492349E+01  3.68688372037E+01  2.00000000000E-01  0.0000E+00  9.0
  3000022    1    3    3    0    0  6.22590385558E+01 -3.51555248121E+01  4.33027050178E+01  1.02894232436E+02  6.00000000000E+01  0.0000E+00  9.0
       -2    1    4    4    0  504 -5.78207492390E+00 -2.21869754723E+01  2.92896731575E+00  2.31143489973E+01  3.00000000000E-03  0.0000E+00  9.0
        1    1    4    4  504    0 -1.72065620624E+01  7.09751509342E+01 -2.09636071884E+00  7.30611564472E+01  5.00000000000E-03  0.0000E+00  9.0
  3000022    1    4    4    0    0 -8.48382201942E+01  1.03996888394E+02 -4.53395453660E+01  1.53845866943E+02  6.00000000000E+01  0.0000E+00  9.0
</event>
<event>
10    1   3.4312288E-02   4.9970000E+02  -1.0000000E+00   9.3500000E-02
       11   -1    0    0    0    0  0.00000000000E+00  0.00000000000E+00  2.49922080250E+02  2.49922080250E+02  0.00000000000E+00  0.0000E+00  9.0
      -11   -1    0    0    0    0  0.00000000000E+00  0.00000000000E+00 -2.49755467000E+02  2.49755467000E+02  0.00000000000E+00  0.0000E+00  9.0
  3000025    2    1    2    0    0 -7.99965810080E+01 -1.73974646029E+02  1.26095809774E+01  2.49874688714E+02  1.60036646096E+02  7.7732E-13  9.0
 -3000025    2    1    2    0    0  7.99965810080E+01  1.73974646029E+02 -1.24429677294E+01  2.49802858541E+02  1.59937519849E+02  3.0571E-13  9.0
        4    1    3    3  500    0 -2.17950041894E+01 -1.61406348541E+01  4.77068439175E+01  5.48966372894E+01  1.46817165330E+00  0.0000E+00  9.0
       -3    1    3    3    0  500 -4.80956636312E+01 -6.98094181307E+01 -1.66251886155E+01  8.63885676254E+01  2.00000000000E-01  0.0000E+00  9.0
  3000022    1    3    3    0    0 -1.01059131881E+01 -8.80245930445E+01 -1.84720743246E+01  1.08589483800E+02  6.00000000000E+01  0.0000E+00  9.0
       -2    1    4    4    0  504 -9.19627973823E+00 -8.27523058079E+00 -2.27437527412E+01  2.58907184130E+01  3.00000000000E-03  0.0000E+00  9.0
        1    1    4    4  504    0  5.02985461954E+01  4.07048554374E+01  8.98242975292E+00  6.53262051157E+01  5.00000000000E-03  0.0000E+00  9.0
  3000022    1    4    4    0    0  3.88943145508E+01  1.41545021173E+02  1.31835525936E+00  1.58585935012E+02  6.00000000000E+01  0.0000E+00  9.0
</event>
<event>
10    1   3.4312288E-02   4.7680000E+02  -1.0000000E+00   9.4020000E-02
       11   -1    0    0    0    0  0.00000000000E+00  0.00000000000E+00  2.28218315520E+02  2.28218315520E+02  0.00000000000E+00  0.0000E+00  9.0
      -11   -1    0    0    0    0  0.00000000000E+00  0.00000000000E+00 -2.49016600270E+02  2.49016600270E+02  0.00000000000E+00  0.0000E+00  9.0
  3000025    2    1    2    0    0  2.76264605156E+01  1.40618545382E+02 -1.13939833233E+02  2.43107616585E+02  1.59944462294E+02  6.1178E-13  9.0
 -3000025    2    1    2    0    0 -2.76264605156E+01 -1.40618545382E+02  9.31415484842E+01  2.34127299202E+02  1.60010773236E+02  2.1626E-12  9.0
       14    1    3    3    0    0 -1.58081895005E+01  2.79802999657E+01  1.80093181118E+01  3.68392668264E+01  0.00000000000E+00  0.0000E+00  9.0
      -13    1    3    3    0    0  4.07575204005E+01  7.27084598299E+01 -5.04146437138E+01  9.74132592274E+01  1.05700000000E-01  0.0000E+00  9.0
  3000022    1    3    3    0    0  2.67712961495E+00  3.99297855863E+01 -8.15345076299E+01  1.08855090530E+02  6.00000000000E+01  0.0000E+00  9.0
       -2    1    4    4    0  500  9.55837557602E+00  1.69294063659E+01 -4.32734076091E+00  1.99171592004E+01  3.00000000000E-03  0.0000E+00  9.0
        1    1    4    4  500    0 -3.68120415219E-01 -9.76269836514E+01  4.10322425763E+01  1.05899992471E+02  5.00000000000E-03  0.0000E+00  9.0
  3000022    1    4    4    0    0 -3.68167156764E+01 -5.99209680958E+01  5.64366466682E+01  1.08310147530E+02  6.00000000000E+01  0.0000E+00  9.0
</event>
<event>
10    1   3.4312288E-02   4.9710000E+02  -1.0000000E+00   9.3560000E-02
       11   -1    0    0    0    0  0.00000000000E+00  0.00000000000E+00  2.49996930070E+02  2.49996930070E+02  0.00000000000E+00  0.0000E+00  9.0
      -11   -1    0    0    0    0  0.00000000000E+00  0.00000000000E+00 -2.47094542700E+02  2.47094542700E+02  0.00000000000E+00  0.0000E+00  9.0
  3000025    2    1    2    0    0  1.42530680145E+02 -1.24686564041E+02 -1.63404246143E+01  2.48458377378E+02  1.60008817812E+02  4.0700E-12  9.0
 -3000025    2    1    2    0    0 -1.42530680145E+02  1.24686564041E+02  1.92428119883E+01  2.48633095400E+02  1.59957482725E+02  1.0008E-12  9.0
        4    1    3    3  500    0 -1.13780837812E+00 -2.37126514128E+01  1.05297259222E+01  2.60118261745E+01  1.46817165330E+00  0.0000E+00  9.0
       -3    1    3    3    0  500  1.09481746362E+02 -6.98004581562E+01  2.28332329314E+01  1.31832292218E+02  2.00000000000E-01  0.0000E+00  9.0
  3000022    1    3    3    0    0  3.41867421610E+01 -3.11734544706E+01 -4.97033834678E+01  9.06142589848E+01  6.00000000000E+01  0.0000E+00  9.0
       -4    1    4    4    0  504 -2.77189316720E+01  5.09885779151E+01  4.15969887607E+01  7.14187598101E+01  1.46817165330E+00  0.0000E+00  9.0
        3    1    4    4  504    0 -8.49572529486E+01  1.61779812543E+01 -1.63386747323E+00  8.64995458309E+01  2.00000000000E-01  0.0000E+00  9.0
  3000022    1    4    4    0    0 -2.98544955234E+01  5.75200048714E+01 -2.07203092989E+01  9.07147897578E+01  6.00000000000E+01  0.0000E+00  9.0
</event>
<event>
10    1   3.4312288E-02   4.5720000E+02  -1.0000000E+00   9.4490000E-02
       11   -1    0    0    0    0  0.00000000000E+00  0.00000000000E+00  2.48481412650E+02  2.48481412650E+02  0.00000000000E+00  0.0000E+00  9.0
      -11   -1    0    0    0    0  0.00000000000E+00  0.00000000000E+00 -2.10281084350E+02  2.10281084350E+02  0.00000000000E+00  0.0000E+00  9.0
  3000025    2    1    2    0    0  6.48607968771E+01 -6.87312170195E+01  1.52671562842E+02  2.40513633226E+02  1.60022806196E+02  2.7044E-12  9.0
 -3000025    2    1    2    0    0 -6.48607968771E+01  6.87312170195E+01 -1.14471234532E+02  2.18248863777E+02  1.59993749379E+02  2.1187E-12  9.0
        4    1    3    3  500    0  7.44318738768E+01 -6.71394050058E+01  1.16080493039E+02  1.53377442754E+02  1.46817165330E+00  0.0000E+00  9.0
       -3    1    3    3    0  500 -9.29409209171E+00 -3.82601563672E+00 -7.58528949838E+00  1.25934570407E+01  2.00000000000E-01  0.0000E+00  9.0
  3000022    1    3    3    0    0 -2.76984909047E-01  2.23420362290E+00  4.41763593004E+01  7.45427334319E+01  6.00000000000E+01  0.0000E+00  9.0
       -4    1    4    4    0  504 -7.19707256964E+01 -5.46775192592E-01 -2.81900356296E+01  7.73105294069E+01  1.46817165330E+00  0.0000E+00  9.0
        3    1    4    4  504    0  4.26276966003E+00  3.78535240431E+01 -1.10369216527E+01  3.96599814325E+01  2.00000000000E-01  0.0000E+00  9.0
  3000022    1    4    4    0    0  2.84715915909E+00  3.14244681692E+01 -7.52442772505E+01  1.01278352939E+02  6.00000000000E+01  0.0000E+00  9.0
</event>
<event>
10    1   3.4312288E-02   4.6380000E+02  -1.0000000E+00   9.4330000E-02
       11   -1    0    0    0    0  0.00000000000E+00  0.00000000000E+00  2.23512056240E+02  2.23512056240E+02  0.00000000000E+00  0.0000E+00  9.0
      -11   -1    0    0    0    0  0.00000000000E+00  0.00000000000E+00 -2.40557685290E+02  2.40557685290E+02  0.00000000000E+00  0.0000E+00  9.0
  3000025    2    1    2    0    0  1.26886943094E+02  1.09788496055E+02 -1.24288541794E+01  2.32198866672E+02  1.60025082639E+02  3.9165E-12  9.0
 -3000025    2    1    2    0    0 -1.26886943094E+02 -1.09788496055E+02 -4.61677487352E+00  2.31870874858E+02  1.59965551928E+02  1.5722E-12  9.0
        2    1    3    3  500    0  5.02543891518E+01  4.77477319293E+01  4.18117233605E+01  8.09541212835E+01  3.00000000000E-03  0.0000E+00  9.0
       -1    1    3    3    0  500  3.83342937327E+01 -2.71482782978E+00 -3.72626607372E+01  5.35293776943E+01  5.00000000000E-03  0.0000E+00  9.0
  3000022    1    3    3    0    0  3.82982602103E+01  6.47555919552E+01 -1.69779168017E+01  9.77153676938E+01  6.00000000000E+01  0.0000E+00  9.0
       -2    1    4    4    0  504 -1.33991931033E+00 -4.81497825278E+01  9.62032677640E+00  4.91197275798E+01  3.00000000000E-03  0.0000E+00  9.0
        1    1    4    4  504    0 -6.39091576004E+01  2.32845273546E+00  2.49083105350E+01  6.86310868051E+01  5.00000000000E-03  0.0000E+00  9.0
  3000022    1    4    4    0    0 -6.16378661841E+01 -6.39671662624E+01 -3.91454121850E+01  1.14120060474E+02  6.00000000000E+01  0.0000E+00  9.0
</event>
<event>
10    1   3.4312288E-02   4.4150000E+02  -1.0000000E+00   9.4890000E-02
       11   -1    0    0    0    0  0.00000000000E+00  0.00000000000E+00  2.01377849180E+02  2.01377849180E+02  0.00000000000E+00  0.0000E+00  9.0
      -11   -1    0    0    0    0  0.00000000000E+00  0.00000000000E+00 -2.42017332100E+02  2.42017332100E+02  0.00000000000E+00  0.0000E+00  9.0
  3000025    2    1    2    0    0  9.61993276251E+01 -1.17338051848E+02 -1.10661121233E+01  2.20972935521E+02  1.60262442101E+02  2.0685E-12  9.0
 -3000025    2    1    2    0    0 -9.61993276251E+01  1.17338051848E+02 -2.95733707927E+01  2.22422245758E+02  1.59920424278E+02  7.8274E-13  9.0
        4    1    3    3  500    0 -8.64848964107E+00 -5.13253132493E+01  5.39843811960E+00  5.23486658411E+01  1.46817165330E+00  0.0000E+00  9.0
       -3    1    3    3    0  500  4.48027373441E+01  6.13880116109E+00  2.26171193757E+01  5.05622808235E+01  2.00000000000E-01  0.0000E+00  9.0
  3000022    1    3    3    0    0  6.00450799223E+01 -7.21515397612E+01 -3.90816696187E+01  1.18061988857E+02  6.00000000000E+01  0.0000E+00  9.0
       -4    1    4    4    0  504  2.41516761938E+01  7.40628541043E+00 -2.39979732849E+01  3.48742709793E+01  1.46817165330E+00  0.0000E+00  9.0
        3    1    4    4  504    0 -4.59948552403E+01  6.78287180010E+01 -1.25344329453E+01  8.29060534792E+01  2.00000000000E-01  0.0000E+00  9.0
  3000022    1    4    4    0    0 -7.43561485786E+01  4.21030484366E+01  6.95903543742E+00  1.04641921300E+02  6.00000000000E+01  0.0000E+00  9.0
</event>
<event>
10    1   3.4312288E-02   4.3950000E+02  -1.0000000E+00   9.4940000E-02
       11   -1    0    0    0    0  0.00000000000E+00  0.00000000000E+00  2.47548400840E+02  2.47548400840E+02  0.00000000000E+00  0.0000E+00  9.0
      -11   -1    0    0    0    0  0.00000000000E+00  0.00000000000E+00 -1.95044109790E+02  1.95044109790E+02  0.00000000000E+00  0.0000E+00  9.0
  3000025    2    1    2    0    0 -1.33301007327E+02 -2.23351167409E+01 -3.83611296282E+01  2.14057158282E+02  1.61495742208E+02  1.1603E-12  9.0
 -3000025    2    1    2    0    0  1.33301007327E+02  2.23351167409E+01  9.08654206842E+01  2.28535352351E+02  1.60324254572E+02  1.8649E-12  9.0
       14    1    3    3    0    0 -5.82081827169E+00 -1.53313141798E+01 -3.84135478650E+01  4.17675924540E+01  0.00000000000E+00  0.0000E+00  9.0
      -13    1    3    3    0    0 -1.04942603266E+02 -1.04649250062E+01 -1.45521770988E+01  1.06462395551E+02  1.05700000000E-01  0.0000E+00  9.0
  3000022    1    3    3    0    0 -2.25375857895E+01  3.46112244483E+00  1.46045953360E+01  6.58271702773E+01  6.00000000000E+01  0.0000E+00  9.0
       -2    1    4    4    0  500  4.62310186963E+01  3.37063631581E+01 -1.45534975373E+01  5.90358391709E+01  3.00000000000E-03  0.0000E+00  9.0
        1    1    4    4  500    0  1.62463192016E+01  1.68331616588E+01  5.58602638732E+01  6.05612691744E+01  5.00000000000E-03  0.0000E+00  9.0
  3000022    1    4    4    0    0  7.08236694291E+01 -2.82044080759E+01  4.95586543479E+01  1.08938244006E+02  6.00000000000E+01  0.0000E+00  9.0
</event>
<event>
10    1   3.4312288E-02   5.0000000E+02  -1.0000000E+00   9.3490000E-02
       11   -1    0    0    0    0  0.00000000000E+00  0.00000000000E+00  2.49999999980E+02  2.49999999980E+02  0.00000000000E+00  0.0000E+00  9.0
      -11   -1    0    0    0    0  0.00000000000E+00  0.00000000000E+00 -2.49985267270E+02  2.49985267270E+02  0.00000000000E+00  0.0000E+00  9.0
  3000025    2    1    2    0    0  1.01218070876E+02 -1.53769362916E+02 -5.47658534261E+01  2.50002110237E+02  1.60036375796E+02  4.3224E-13  9.0
 -3000025    2    1    2    0    0 -1.01218070876E+02  1.53769362916E+02  5.47805861401E+01  2.49983157020E+02  1.60001722905E+02  1.6036E-12  9.0
        2    1    3    3  500    0 -7.88115568398E+00  4.70305131710E-02 -2.44075855514E+01  2.56484905644E+01  3.00000000000E-03  0.0000E+00  9.0
       -1    1    3    3    0  500  9.36997880230E+01 -8.91683881207E+01 -3.71077773841E+01  1.34564627161E+02  5.00000000000E-03  0.0000E+00  9.0
  3000022    1    3    3    0    0  1.53994385368E+01 -6.46480053078E+01  6.74950950951E+00  8.97889925110E+01  6.00000000000E+01  0.0000E+00  9.0
       -4    1    4    4    0  504  1.04119875096E+01  1.39762274748E+01  2.48181807273E+01  3.03618517377E+01  1.46817165330E+00  0.0000E+00  9.0
        3    1    4    4  504    0 -9.05835573586E+01  4.75175627089E+01 -4.47379479844E+00  1.02388253572E+02  2.00000000000E-01  0.0000E+00  9.0
  3000022    1    4    4    0    0 -2.10465010283E+01  9.22755727330E+01  3.44362002104E+01  1.17233051712E+02  6.00000000000E+01  0.0000E+00  9.0
</event>
<event>
10    1   3.4312288E-02   4.7770000E+02  -1.0000000E+00   9.4000000E-02
       11   -1    0    0    0    0  0.00000000000E+00  0.00000000000E+00  2.28172097270E+02  2.28172097270E+02  0.00000000000E+00  0.0000E+00  9.0
      -11   -1    0    0    0    0  0.00000000000E+00  0.00000000000E+00 -2.49997559080E+02  2.49997559080E+02  0.00000000000E+00  0.0000E+00  9.0
  3000025    2    1    2    0    0 -9.41763543037E+01  1.41086257921E+02 -6.25296920077E+01  2.41396859835E+02  1.59962382052E+02  9.1975E-13  9.0
 -3000025    2    1    2    0    0  9.41763543037E+01 -1.41086257921E+02  4.07042301997E+01  2.36772796512E+02  1.60093737941E+02  2.8531E-14  9.0
        2    1    3    3  500    0  4.74941153312E+00 -2.04696833670E+01  7.14807796266E+00  2.21959427512E+01  3.00000000000E-03  0.0000E+00  9.0
       -1    1    3    3    0  500 -5.10995326284E+01  5.03361821866E+01 -3.44116353787E+01  7.95553527200E+01  5.00000000000E-03  0.0000E+00  9.0
  3000022    1    3    3    0    0 -4.78262332084E+01  1.11219759102E+02 -3.52661345918E+01  1.39645564364E+02  6.00000000000E+01  0.0000E+00  9.0
       -2    1    4    4    0  504  1.03999962788E+01 -9.31102031247E+00 -1.97589098997E+01  2.41923448901E+01  3.00000000000E-03  0.0000E+00  9.0
        1    1    4    4  504    0  3.69630925194E+01 -6.42183432030E+01  7.99109749725E+01  1.08977198342E+02  5.00000000000E-03  0.0000E+00  9.0
  3000022    1    4    4    0    0  4.68132655056E+01 -6.75568944060E+01 -1.94478348732E+01  1.03603253281E+02  6.00000000000E+01  0.0000E+00  9.0
</event>
<event>
10    1   3.4312288E-02   4.9850000E+02  -1.0000000E+00   9.3520000E-02
       11   -1    0    0    0    0  0.00000000000E+00  0.00000000000E+00  2.49999998080E+02  2.49999998080E+02  0.00000000000E+00  0.0000E+00  9.0
      -11   -1    0    0    0    0  0.00000000000E+00  0.00000000000E+00 -2.48498581100E+02  2.48498581100E+02  0.00000000000E+00  0.0000E+00  9.0
  3000025    2    1    2    0    0 -2.91778434109E+00 -1.89593575785E+02  2.35457739535E+01  2.49284669781E+02  1.60106857045E+02  1.2506E-12  9.0
 -3000025    2    1    2    0    0  2.91778434109E+00  1.89593575785E+02 -2.20443569695E+01  2.49213909398E+02  1.60210428870E+02  3.3521E-13  9.0
        2    1    3    3  500    0 -1.50990785528E+01 -6.58240398810E-02 -2.67434685883E+01  3.07115552697E+01  3.00000000000E-03  0.0000E+00  9.0
       -1    1    3    3    0  500 -1.82213764953E+01 -9.44839793496E+01  2.50415890396E+01  9.94299860291E+01  5.00000000000E-03  0.0000E+00  9.0
  3000022    1    3    3    0    0  3.04026707070E+01 -9.50437723965E+01  2.52476535033E+01  1.19143128484E+02  6.00000000000E+01  0.0000E+00  9.0
      -14    1    4    4    0    0 -3.83189003749E+01  2.32781717999E+01 -7.22962186745E+00  4.54145223539E+01  0.00000000000E+00  0.0000E+00  9.0
       13    1    4    4    0    0  2.15089285172E+01  1.19749028678E+02 -2.63485542337E+01  1.24485827941E+02  1.05700000000E-01  0.0000E+00  9.0
  3000022    1    4    4    0    0  1.97277561979E+01  4.65663753049E+01  1.15338191319E+01  7.93135591019E+01  6.00000000000E+01  0.0000E+00  9.0
</event>
<event>
10    1   3.4312288E-02   4.8360000E+02  -1.0000000E+00   9.3860000E-02
       11   -1    0    0    0    0  0.00000000000E+00  0.00000000000E+00  2.49987706420E+02  2.49987706420E+02  0.00000000000E+00  0.0000E+00  9.0
      -11   -1    0    0    0    0  0.00000000000E+00  0.00000000000E+00 -2.33859146150E+02  2.33859146150E+02  0.00000000000E+00  0.0000E+00  9.0
  3000025    2    1    2    0    0 -1.77575541635E+02 -8.02216260123E-01 -2.59394718453E+01  2.40414992769E+02  1.59977485950E+02  1.4476E-12  9.0
 -3000025    2    1    2    0    0  1.77575541635E+02  8.02216260123E-01  4.20680321163E+01  2.43431859792E+02  1.61107524647E+02  1.1975E-12  9.0
        4    1    3    3  500    0  8.66180264767E+00  8.98548422725E+00 -1.56143630788E+01  2.00431937142E+01  1.46817165330E+00  0.0000E+00  9.0
       -3    1    3    3    0  500 -1.13458855970E+02 -3.30368309298E+01 -2.84561380223E+01  1.21548903685E+02  2.00000000000E-01  0.0000E+00  9.0
  3000022    1    3    3    0    0 -7.27784883122E+01  2.32491304429E+01  1.81310292558E+01  9.88228953696E+01  6.00000000000E+01  0.0000E+00  9.0
       -2    1    4    4    0  504  5.59362474435E+01 -1.15861854615E+01 -2.20420122186E+01  6.12287006497E+01  3.00000000000E-03  0.0000E+00  9.0
        1    1    4    4  504    0  1.18063422893E+01 -1.88152616250E+01  4.71349056714E+01  5.21066516475E+01  5.00000000000E-03  0.0000E+00  9.0
  3000022    1    4    4    0    0  1.09832951902E+02  3.12036633467E+01  1.69751386633E+01  1.30096507495E+02  6.00000000000E+01  0.0000E+00  9.0
</event>
<event>
10    1   3.4312288E-02   4.5370000E+02  -1.0000000E+00   9.4580000E-02
       11   -1    0    0    0    0  0.00000000000E+00  0.00000000000E+00  2.49796192390E+02  2.49796192390E+02  0.00000000000E+00  0.0000E+00  9.0
      -11   -1    0    0    0    0  0.00000000000E+00  0.00000000000E+00 -2.05974621640E+02  2.05974621640E+02  0.00000000000E+00  0.0000E+00  9.0
  3000025    2    1    2    0    0  1.65990591315E+01  1.49120031254E+02  8.00112129742E+01  2.33496174378E+02  1.60019863650E+02  2.4931E-12  9.0
 -3000025    2    1    2    0    0 -1.65990591315E+01 -1.49120031254E+02 -3.61896422222E+01  2.22274639640E+02  1.59950032003E+02  4.0302E-13  9.0
        4    1    3    3  500    0  6.20311923766E+01  3.98841285722E+01  5.37951890809E+01  9.12945257717E+01  1.46817165330E+00  0.0000E+00  9.0
       -3    1    3    3    0  500 -2.25541254686E+01  2.34494520422E+01  4.20342841275E+00  3.28066180389E+01  2.00000000000E-01  0.0000E+00  9.0
  3000022    1    3    3    0    0 -2.28780077765E+01  8.57864506396E+01  2.20125954809E+01  1.09395030568E+02  6.00000000000E+01  0.0000E+00  9.0
       -4    1    4    4    0  504 -5.63115865113E+00 -6.02427288023E+01  4.20052648369E+01  7.36715285800E+01  1.46817165330E+00  0.0000E+00  9.0
        3    1    4    4  504    0  1.45809506783E+01 -6.96856946158E+00 -2.83766567187E+01  3.26563888015E+01  2.00000000000E-01  0.0000E+00  9.0
  3000022    1    4    4    0    0 -2.55488511586E+01 -8.19087329896E+01 -4.98182503404E+01  1.15946722258E+02  6.00000000000E+01  0.0000E+00  9.0
</event>
<event>
10    1   3.4312288E-02   5.0000000E+02  -1.0000000E+00   9.3490000E-02
       11   -1    0    0    0    0  0.00000000000E+00  0.00000000000E+00  2.50000000000E+02  2.50000000000E+02  0.00000000000E+00  0.0000E+00  9.0
      -11   -1    0    0    0    0  0.00000000000E+00  0.00000000000E+00 -2.49985079630E+02  2.49985079630E+02  0.00000000000E+00  0.0000E+00  9.0
  3000025    2    1    2    0    0 -6.25860782323E+01 -1.54496231519E+02 -9.55360635544E+01  2.49998496947E+02  1.59956263693E+02  2.1438E-13  9.0
 -3000025    2    1    2    0    0  6.25860782323E+01  1.54496231519E+02  9.55509839274E+01  2.49986582678E+02  1.59928728649E+02  1.8662E-12  9.0
       14    1    3    3    0    0 -3.02134011943E+01 -1.01399433810E+02 -1.43309691778E+01  1.06771117191E+02  0.00000000000E+00  0.0000E+00  9.0
      -13    1    3    3    0    0  1.52175502306E+01 -2.38668330563E+01 -4.60111058394E+01  5.40206681578E+01  1.05700000000E-01  0.0000E+00  9.0
  3000022    1    3    3    0    0 -4.75902272684E+01 -2.92299646525E+01 -3.51939885373E+01  8.92067115984E+01  6.00000000000E+01  0.0000E+00  9.0
       -4    1    4    4    0  500  2.41923574602E+00  6.61587005008E+01  4.25698049307E+01  7.87221072723E+01  1.46817165330E+00  0.0000E+00  9.0
        3    1    4    4  500    0  3.37251047261E+00 -7.51338030865E+00 -2.24719429358E+01  2.39343462384E+01  2.00000000000E-01  0.0000E+00  9.0
  3000022    1    4    4    0    0  5.67943320135E+01  9.58509113250E+01  7.54531219323E+01  1.47330129166E+02  6.00000000000E+01  0.0000E+00  9.0
</event>
<event>
10    1   3.4312288E-02   4.9840000E+02  -1.0000000E+00   9.3530000E-02
       11   -1    0    0    0    0  0.00000000000E+00  0.00000000000E+00  2.49999718630E+02  2.49999718630E+02  0.00000000000E+00  0.0000E+00  9.0
      -11   -1    0    0    0    0  0.00000000000E+00  0.00000000000E+00 -2.48389558540E+02  2.48389558540E+02  0.00000000000E+00  0.0000E+00  9.0
  3000025    2    1    2    0    0  5.93232125270E+00 -1.87938822210E+02  3.53067328379E+01  2.49383938716E+02  1.59967465993E+02  6.3693E-13  9.0
 -3000025    2    1    2    0    0 -5.93232125270E+00  1.87938822210E+02 -3.36965727489E+01  2.49005338451E+02  1.59724782776E+02  2.4836E-13  9.0
        2    1    3    3  500    0 -3.13884143267E+01 -3.61671806361E+01  3.24593079510E+01  5.78524346141E+01  3.00000000000E-03  0.0000E+00  9.0
       -1    1    3    3    0  500 -2.17458303157E+01 -5.15096478880E+00  2.19253796153E+00  2.24548618809E+01  5.00000000000E-03  0.0000E+00  9.0
  3000022    1    3    3    0    0  5.90665658952E+01 -1.46620676786E+02  6.54886925191E-01  1.69076642221E+02  6.00000000000E+01  0.0000E+00  9.0
       -4    1    4    4    0  504 -2.73147207134E+01  1.14827605311E+00  1.62165043369E+01  3.18204815560E+01  1.46817165330E+00  0.0000E+00  9.0
        3    1    4    4  504    0  1.25315718210E+00  5.63387182127E+01 -4.49887938707E+01  7.21086204743E+01  2.00000000000E-01  0.0000E+00  9.0
  3000022    1    4    4    0    0  2.01292422782E+01  1.30451827945E+02 -4.92428321419E+00  1.45076236421E+02  6.00000000000E+01  0.0000E+00  9.0
</event>
<event>
10    1   3.4312288E-02   4.9940000E+02  -1.0000000E+00   9.3500000E-02
       11   -1    0    0    0    0  0.00000000000E+00  0.00000000000E+00  2.49423927500E+02  2.49423927500E+02  0.00000000000E+00  0.0000E+00  9.0
      -11   -1    0    0    0    0  0.00000000000E+00  0.00000000000E+00 -2.49997659360E+02  2.49997659360E+02  0.00000000000E+00  0.0000E+00  9.0
  3000025    2    1    2    0    0  4.44449924888E+00  1.90317582395E+02 -2.28625367506E+01  2.49783643122E+02  1.60089465745E+02  1.1300E-13  9.0
 -3000025    2    1    2    0    0 -4.44449924888E+00 -1.90317582395E+02  2.22888048826E+01  2.49637943736E+02  1.59943041072E+02  6.7362E-13  9.0
        2    1    3    3  500    0  1.07379307700E+01 -4.14546377705E+00 -1.60385213656E+01  1.97413830251E+01  3.00000000000E-03  0.0000E+00  9.0
       -1    1    3    3    0  500  1.51218943100E+01  1.40410714291E+02  1.92303976419E+01  1.42525957614E+02  5.00000000000E-03  0.0000E+00  9.0
  3000022    1    3    3    0    0 -2.14153258311E+01  5.40523318807E+01 -2.60544130269E+01  8.75163024835E+01  6.00000000000E+01  0.0000E+00  9.0
      -14    1    4    4    0    0  4.12949300022E+01 -9.42819529505E+01 -2.14277669957E+01  1.05135660432E+02  0.00000000000E+00  0.0000E+00  9.0
       13    1    4    4    0    0 -7.82398225774E+00 -4.84909882902E+00  2.60217611706E+01  2.76020232000E+01  1.05700000000E-01  0.0000E+00  9.0
  3000022    1    4    4    0    0 -3.79154469934E+01 -9.11865306145E+01  1.76948107075E+01  1.16900260103E+02  6.00000000000E+01  0.0000E+00  9.0
</event>
<event>
10    1   3.4312288E-02   4.5920000E+02  -1.0000000E+00   9.4440000E-02
       11   -1    0    0    0    0  0.00000000000E+00  0.00000000000E+00  2.12432620780E+02  2.12432620780E+02  0.00000000000E+00  0.0000E+00  9.0
      -11   -1    0    0    0    0  0.00000000000E+00  0.00000000000E+00 -2.48163286390E+02  2.48163286390E+02  0.00000000000E+00  0.0000E+00  9.0
  3000025    2    1    2    0    0  4.39268790857E+01 -1.54278287398E+02  1.98908844590E+01  2.27299971613E+02  1.59806974635E+02  2.6839E-13  9.0
 -3000025    2    1    2    0    0 -4.39268790857E+01  1.54278287398E+02 -5.56215500650E+01  2.33295935558E+02  1.60005862541E+02  3.5268E-13  9.0
        4    1    3    3  500    0  1.79853855718E+01 -5.39785139499E+01 -2.94223467696E+01  6.40701496786E+01  1.46817165330E+00  0.0000E+00  9.0
       -3    1    3    3    0  500  4.64142703533E+01 -3.44189044061E+01  4.21427259604E+01  7.15191919999E+01  2.00000000000E-01  0.0000E+00  9.0
  3000022    1    3    3    0    0 -2.04727768385E+01 -6.58808690423E+01  7.17050526797E+00  9.17106299348E+01  6.00000000000E+01  0.0000E+00  9.0
       -2    1    4    4    0  504  3.95738940230E+01  3.41016241589E+01 -1.94180186568E+01  5.57321569292E+01  3.00000000000E-03  0.0000E+00  9.0
        1    1    4    4  504    0 -3.84553923751E+01  2.02142003611E+01 -2.92710337950E+01  5.23853466476E+01  5.00000000000E-03  0.0000E+00  9.0
  3000022    1    4    4    0    0 -4.50453807335E+01  9.99624628775E+01 -6.93249761269E+00  1.25178431981E+02  6.00000000000E+01  0.0000E+00  9.0
</event>
<event>
10    1   3.4312288E-02   4.2020000E+02  -1.0000000E+00   9.5450000E-02
       11   -1    0    0    0    0  0.00000000000E+00  0.00000000000E+00  2.19611678890E+02  2.19611678890E+02  0.00000000000E+00  0.0000E+00  9.0
      -11   -1    0    0    0    0  0.00000000000E+00  0.00000000000E+00 -2.01034632350E+02  2.01034632350E+02  0.00000000000E+00  0.0000E+00  9.0
  3000025    2    1    2    0    0  8.72306410968E+01  1.03560060894E+02  2.47049836906E+01  2.10990689841E+02  1.59915177585E+02  3.8716E-13  9.0
 -3000025    2    1    2    0    0 -8.72306410968E+01 -1.03560060894E+02 -6.12793714660E+00  2.09655621396E+02  1.59950170400E+02  8.5790E-13  9.0
        4    1    3    3  500    0  1.95765612778E+01  4.19252207854E+01  4.41351599487E+01  6.39611894907E+01  1.46817165330E+00  0.0000E+00  9.0
       -3    1    3    3    0  500  4.24888378935E+01  6.05404158216E+01 -3.22800546994E+01  8.06999704138E+01  2.00000000000E-01  0.0000E+00  9.0
  3000022    1    3    3    0    0  2.51652419253E+01  1.09442428674E+00  1.28498784407E+01  6.63295299367E+01  6.00000000000E+01  0.0000E+00  9.0
       -2    1    4    4    0  504  2.96078328172E+01 -5.44459416914E+01 -2.48254578946E+00  6.20253768501E+01  3.00000000000E-03  0.0000E+00  9.0
        1    1    4    4  504    0 -4.48841468172E+01 -2.22902765556E+01 -2.35007556815E+00  5.01693725754E+01  5.00000000000E-03  0.0000E+00  9.0
  3000022    1    4    4    0    0 -7.19543270979E+01 -2.68238426470E+01 -1.29531578905E+00  9.74608719716E+01  6.00000000000E+01  0.0000E+00  9.0
</event>
<event>
10    1   3.4312288E-02   4.9770000E+02  -1.0000000E+00   9.3540000E-02
       11   -1    0    0    0    0  0.00000000000E+00  0.00000000000E+00  2.49107709640E+02  2.49107709640E+02  0.00000000000E+00  0.0000E+00  9.0
      -11   -1    0    0    0    0  0.00000000000E+00  0.00000000000E+00 -2.48599232580E+02  2.48599232580E+02  0.00000000000E+00  0.0000E+00  9.0
  3000025    2    1    2    0    0 -1.52190752121E+02 -1.09486165587E+02  3.46912444674E+01  2.48890526869E+02  1.59980518927E+02  2.2906E-12  9.0
 -3000025    2    1    2    0    0  1.52190752121E+02  1.09486165587E+02 -3.41827674034E+01  2.48816415352E+02  1.59974690108E+02  3.4585E-12  9.0
        2    1    3    3  500    0  1.20722549863E+00 -8.86640156544E+00  2.58494249610E+01  2.73544009245E+01  3.00000000000E-03  0.0000E+00  9.0
       -1    1    3    3    0  500 -1.31941275611E+02 -7.79293191711E+01  1.28667327814E+01  1.53775914349E+02  5.00000000000E-03  0.0000E+00  9.0
  3000022    1    3    3    0    0 -2.14567020090E+01 -2.26904448505E+01 -4.02491327535E+00  6.77602115957E+01  6.00000000000E+01  0.0000E+00  9.0
       -4    1    4    4    0  504 -2.30284700786E+01  6.85787868348E+00 -5.22942938856E+00  2.46341915624E+01  1.46817165330E+00  0.0000E+00  9.0
        3    1    4    4  504    0  6.63980226809E+01  5.60498870813E+01  5.52416826020E+00  8.70680405932E+01  2.00000000000E-01  0.0000E+00  9.0
  3000022    1    4    4    0    0  1.08821199519E+02  4.65783998219E+01 -3.44775062755E+01  1.37114183197E+02  6.00000000000E+01  0.0000E+00  9.0
</event>
<event>
10    1   3.4312288E-02   4.9980000E+02  -1.0000000E+00   9.3500000E-02
       11   -1    0    0    0    0  0.00000000000E+00  0.00000000000E+00  2.49784032330E+02  2.49784032330E+02  0.00000000000E+00  0.0000E+00  9.0
      -11   -1    0    0    0    0  0.00000000000E+00  0.00000000000E+00 -2.49999996440E+02  2.49999996440E+02  0.00000000000E+00  0.0000E+00  9.0
  3000025    2    1    2    0    0 -1.22333924919E+02 -1.45885982110E+02  2.43578786738E+01  2.49903126715E+02  1.60031114244E+02  2.1492E-12  9.0
 -3000025    2    1    2    0    0  1.22333924919E+02  1.45885982110E+02 -2.45738427838E+01  2.49880902043E+02  1.59963378603E+02  9.1459E-13  9.0
        2    1    3    3  500    0 -4.38246630031E+01 -3.20278927052E+01  4.33736367419E+01  6.94813598866E+01  3.00000000000E-03  0.0000E+00  9.0
       -1    1    3    3    0  500 -6.86114911700E+01 -5.31390448357E+01 -3.39717134069E+01  9.31953440008E+01  5.00000000000E-03  0.0000E+00  9.0
  3000022    1    3    3    0    0 -9.89777074509E+00 -6.07190445693E+01  1.49559553388E+01  8.72264228272E+01  6.00000000000E+01  0.0000E+00  9.0
       -4    1    4    4    0  504  3.76406512929E+01 -8.46736428150E+00 -3.64992478612E+00  3.87813404432E+01  1.46817165330E+00  0.0000E+00  9.0
        3    1    4    4  504    0 -1.31882109846E+01  5.92945849204E+01 -1.08567914288E+01  6.17064553348E+01  2.00000000000E-01  0.0000E+00  9.0
  3000022    1    4    4    0    0  9.78814846111E+01  9.50587614716E+01 -1.00671265689E+01  1.49393106265E+02  6.00000000000E+01  0.0000E+00  9.0
</event>
<event>
10    1   3.4312288E-02   4.8750000E+02  -1.0000000E+00   9.3770000E-02
       11   -1    0    0    0    0  0.00000000000E+00  0.00000000000E+00  2.49426386810E+02  2.49426386810E+02  0.00000000000E+00  0.0000E+00  9.0
      -11   -1    0    0    0    0  0.00000000000E+00  0.00000000000E+00 -2.38177023000E+02  2.38177023000E+02  0.00000000000E+00  0.0000E+00  9.0
  3000025    2    1    2    0    0 -1.19950393776E+01 -1.82612780303E+02  2.37130297795E+01  2.44253018959E+02  1.60018502022E+02  1.3068E-13  9.0
 -3000025    2    1    2    0    0  1.19950393776E+01  1.82612780303E+02 -1.24636659725E+01  2.43350390862E+02  1.59914856294E+02  5.6767E-13  9.0
        2    1    3    3  500    0  4.08460764412E+01 -2.83070948840E+01 -2.44211140373E+01  5.53722349308E+01  3.00000000000E-03  0.0000E+00  9.0
       -1    1    3    3    0  500 -3.23599590612E+01 -3.60292713111E+01  1.15405538849E+01  4.97841315142E+01  5.00000000000E-03  0.0000E+00  9.0
  3000022    1    3    3    0    0 -2.04811567566E+01 -1.18276414108E+02  3.65935899318E+01  1.39096652514E+02  6.00000000000E+01  0.0000E+00  9.0
       -2    1    4    4    0  504  3.40022525912E+01  2.07523614422E+01 -7.68180179612E+00  4.05687536725E+01  3.00000000000E-03  0.0000E+00  9.0
        1    1    4    4  504    0 -4.62008877928E+01  3.17211200267E+01  9.14345975155E+00  5.67833987167E+01  5.00000000000E-03  0.0000E+00  9.0
  3000022    1    4    4    0    0  2.41936745792E+01  1.30139298833E+02 -1.39253239284E+01  1.45998238472E+02  6.00000000000E+01  0.0000E+00  9.0
</event>
<event>
10    1   3.4312288E-02   5.0000000E+02  -1.0000000E+00   9.3490000E-02
       11   -1    0    0    0    0  0.00000000000E+00  0.00000000000E+00  2.49990760700E+02  2.49990760700E+02  0.00000000000E+00  0.0000E+00  9.0
      -11   -1    0    0    0    0  0.00000000000E+00  0.00000000000E+00 -2.50000000000E+02  2.50000000000E+02  0.00000000000E+00  0.0000E+00  9.0
  3000025    2    1    2    0    0  4.42804476715E+01  1.83257140417E+02 -3.60581684274E+01  2.49908438503E+02  1.60031554904E+02  1.4171E-12  9.0
 -3000025    2    1    2    0    0 -4.42804476715E+01 -1.83257140417E+02  3.60489291294E+01  2.50082322197E+02  1.60305037426E+02  3.7065E-15  9.0
       14    1    3    3    0    0 -1.02689773117E+01  9.12183536319E+01  1.88428705367E+01  9.37085572635E+01  0.00000000000E+00  0.0000E+00  9.0
      -13    1    3    3    0    0 -2.70511174514E+00  5.36690132483E+01 -1.11311490110E+01  5.48779943456E+01  1.05700000000E-01  0.0000E+00  9.0
  3000022    1    3    3    0    0  5.72545367283E+01  3.83697735368E+01 -4.37698899534E+01  1.01321886894E+02  6.00000000000E+01  0.0000E+00  9.0
       -2    1    4    4    0  500 -5.05856031079E+00 -6.26077837198E+01  3.46611419944E+01  7.17406327549E+01  3.00000000000E-03  0.0000E+00  9.0
        1    1    4    4  500    0 -1.51418052091E+01 -6.72957324432E+01 -4.51738405135E+01  8.24540221081E+01  5.00000000000E-03  0.0000E+00  9.0
  3000022    1    4    4    0    0 -2.40800821516E+01 -5.33536242533E+01  4.65616276485E+01  9.58876673336E+01  6.00000000000E+01  0.0000E+00  9.0
</event>
<event>
10    1   3.4312288E-02   4.7840000E+02  -1.0000000E+00   9.3980000E-02
       11   -1    0    0    0    0  0.00000000000E+00  0.00000000000E+00  2.44095854800E+02  2.44095854800E+02  0.00000000000E+00  0.0000E+00  9.0
      -11   -1    0    0    0    0  0.00000000000E+00  0.00000000000E+00 -2.34359476070E+02  2.34359476070E+02  0.00000000000E+00  0.0000E+00  9.0
  3000025    2    1    2    0    0  1.36945283759E+02  5.27356321274E+01  1.08477044784E+02  2.39996084197E+02  1.55871079888E+02  1.8755E-12  9.0
 -3000025    2    1    2    0    0 -1.36945283759E+02 -5.27356321274E+01 -9.87406660571E+01  2.38459246659E+02  1.59931346346E+02  6.5351E-13  9.0
        4    1    3    3  500    0  4.52913608890E+01 -1.49647638779E+01  4.01753280443E+00  4.78909973475E+01  1.46817165330E+00  0.0000E+00  9.0
       -3    1    3    3    0  500 -2.01823494895E+00  1.01168632235E+01  5.73616565365E+01  5.82822771896E+01  2.00000000000E-01  0.0000E+00  9.0
  3000022    1    3    3    0    0  9.36721578187E+01  5.75835327820E+01  4.70978554431E+01  1.33822809660E+02  6.00000000000E+01  0.0000E+00  9.0
      -14    1    4    4    0    0 -6.93958486975E+01 -2.29039892496E+00  1.29300061635E+01  7.06272950287E+01  0.00000000000E+00  0.0000E+00  9.0
       13    1    4    4    0    0  1.17897256158E+01 -1.60641291020E+01 -2.04897640923E+01  2.85813834331E+01  1.05700000000E-01  0.0000E+00  9.0
  3000022    1    4    4    0    0 -7.93391606765E+01 -3.43811041004E+01 -9.11809081279E+01  1.39250568196E+02  6.00000000000E+01  0.0000E+00  9.0
</event>
<event>
10    1   3.4312288E-02   3.9500000E+02  -1.0000000E+00   9.6170000E-02
       11   -1    0    0    0    0  0.00000000000E+00  0.00000000000E+00  2.48854658790E+02  2.48854658790E+02  0.00000000000E+00  0.0000E+00  9.0
      -11   -1    0    0    0    0  0.00000000000E+00  0.00000000000E+00 -1.56760464210E+02  1.56760464210E+02  0.00000000000E+00  0.0000E+00  9.0
  3000025    2    1    2    0    0 -6.76838098207E+01 -4.15796569928E+01 -4.04777847325E+01  1.83245697670E+02  1.60095498595E+02  2.1987E-12  9.0
 -3000025    2    1    2    0    0  6.76838098207E+01  4.15796569928E+01  1.32571979319E+02  2.22369425332E+02  1.59883912994E+02  2.0404E-12  9.0
        4    1    3    3  500    0  1.63616716055E+01 -6.19384233982E+00 -2.38353601848E+01  2.96031738805E+01  1.46817165330E+00  0.0000E+00  9.0
       -3    1    3    3    0  500 -5.12742073085E+01  2.81804414015E+01 -1.44423582752E+01  6.02644449510E+01  2.00000000000E-01  0.0000E+00  9.0
  3000022    1    3    3    0    0 -3.27712741176E+01 -6.35662560537E+01 -2.20006627271E+00  9.33780788385E+01  6.00000000000E+01  0.0000E+00  9.0
      -14    1    4    4    0    0  3.63979795760E+01  5.10902319727E+01  1.17361509873E+02  1.33074222598E+02  0.00000000000E+00  0.0000E+00  9.0
       13    1    4    4    0    0  3.92970955712E-01  4.71180952115E+00 -1.37143504560E+01  1.45069002911E+01  1.05700000000E-01  0.0000E+00  9.0
  3000022    1    4    4    0    0  3.08928592889E+01 -1.42223845011E+01  2.89248199021E+01  7.47883024430E+01  6.00000000000E+01  0.0000E+00  9.0
</event>
<event>
10    1   3.4312288E-02   4.9640000E+02  -1.0000000E+00   9.3570000E-02
       11   -1    0    0    0    0  0.00000000000E+00  0.00000000000E+00  2.49648840140E+02  2.49648840140E+02  0.00000000000E+00  0.0000E+00  9.0
      -11   -1    0    0    0    0  0.00000000000E+00  0.00000000000E+00 -2.46775078920E+02  2.46775078920E+02  0.00000000000E+00  0.0000E+00  9.0
  3000025    2    1    2    0    0  6.74961563374E+01  1.42728816322E+02  1.06669289430E+02  2.48869132854E+02  1.60094540353E+02  4.7415E-13  9.0
 -3000025    2    1    2    0    0 -6.74961563374E+01 -1.42728816322E+02 -1.03795528220E+02  2.47554786213E+02  1.59945660678E+02  2.9274E-13  9.0
        4    1    3    3  500    0 -2.17611654959E-01  4.71186241811E+01  7.82857466207E+01  9.13839469027E+01  1.46817165330E+00  0.0000E+00  9.0
       -3    1    3    3    0  500  2.61533642145E+01 -7.31477114269E+00 -3.38969610769E+00  2.73684924011E+01  2.00000000000E-01  0.0000E+00  9.0
  3000022    1    3    3    0    0  4.15604037771E+01  1.02924963284E+02  3.17732389168E+01  1.30116693550E+02  6.00000000000E+01  0.0000E+00  9.0
       -4    1    4    4    0  504 -3.27504524089E+01 -9.96902526711E+01 -2.13901299900E+01  1.07100101772E+02  1.46817165330E+00  0.0000E+00  9.0
        3    1    4    4  504    0 -3.54882047142E+01  4.86245409230E+00 -1.72584216376E+01  3.97611525369E+01  2.00000000000E-01  0.0000E+00  9.0
  3000022    1    4    4    0    0  7.42500785858E-01 -4.79010177431E+01 -6.51469765917E+01  1.00693531904E+02  6.00000000000E+01  0.0000E+00  9.0
</event>
<event>
10    1   3.4312288E-02   4.8160000E+02  -1.0000000E+00   9.3910000E-02
       11   -1    0    0    0    0  0.00000000000E+00  0.00000000000E+00  2.48692311640E+02  2.48692311640E+02  0.00000000000E+00  0.0000E+00  9.0
      -11   -1    0    0    0    0  0.00000000000E+00  0.00000000000E+00 -2.33145675990E+02  2.33145675990E+02  0.00000000000E+00  0.0000E+00  9.0
  3000025    2    1    2    0    0 -1.00907480495E+02  1.26704842135E+02  8.64635457733E+01  2.43395384650E+02  1.59777757780E+02  1.5284E-12  9.0
 -3000025    2    1    2    0    0  1.00907480495E+02 -1.26704842135E+02 -7.09169101223E+01  2.38442602971E+02  1.59966340616E+02  6.9373E-13  9.0
        4    1    3    3  500    0 -6.02099945385E+00 -1.35632266403E+01  2.16494698131E+01  2.62881840855E+01  1.46817165330E+00  0.0000E+00  9.0
       -3    1    3    3    0  500 -5.63438347995E+01  7.32708837187E+01 -1.13317263661E+01  9.31219530684E+01  2.00000000000E-01  0.0000E+00  9.0
  3000022    1    3    3    0    0 -3.85426462410E+01  6.69971850570E+01  7.61458023262E+01  1.23985247496E+02  6.00000000000E+01  0.0000E+00  9.0
       -2    1    4    4    0  504 -3.78593402868E+00  9.43654722150E+00 -2.18228796955E+01  2.40752945389E+01  3.00000000000E-03  0.0000E+00  9.0
        1    1    4    4  504    0  8.78455661959E+01 -8.71497577851E+01 -5.38543375592E+01  1.34952634214E+02  5.00000000000E-03  0.0000E+00  9.0
  3000022    1    4    4    0    0  1.68478483286E+01 -4.89916315718E+01  4.76030713227E+00  7.94146742193E+01  6.00000000000E+01  0.0000E+00  9.0
</event>
<event>
10    1   3.4312288E-02   4.7940000E+02  -1.0000000E+00   9.3960000E-02
       11   -1    0    0    0    0  0.00000000000E+00  0.00000000000E+00  2.43088184100E+02  2.43088184100E+02  0.00000000000E+00  0.0000E+00  9.0
      -11   -1    0    0    0    0  0.00000000000E+00  0.00000000000E+00 -2.36332279430E+02  2.36332279430E+02  0.00000000000E+00  0.0000E+00  9.0
  3000025    2    1    2    0    0  5.20503242853E+01  1.63979345274E+02  5.06801101724E+01  2.40339036121E+02  1.59987239435E+02  1.1191E-12  9.0
 -3000025    2    1    2    0    0 -5.20503242853E+01 -1.63979345274E+02 -4.39242055084E+01  2.39081427410E+02  1.60100378414E+02  2.0463E-13  9.0
        2    1    3    3  500    0  5.10625764225E+01  1.28450636137E+02  3.48791687477E+01  1.42560545231E+02  3.00000000000E-03  0.0000E+00  9.0
       -1    1    3    3    0  500  1.35900114091E+01 -1.00601162096E+01  1.29958389613E+01  2.13257169530E+01  5.00000000000E-03  0.0000E+00  9.0
  3000022    1    3    3    0    0 -1.26022635462E+01  4.55888253460E+01  2.80510246334E+00  7.64527739375E+01  6.00000000000E+01  0.0000E+00  9.0
       -4    1    4    4    0  504 -4.65907885239E+01 -7.84899925365E+01 -1.61949571642E+01  9.27136056316E+01  1.46817165330E+00  0.0000E+00  9.0
        3    1    4    4  504    0  3.37801908830E+01 -5.56548444133E+01 -4.24760645131E+00  6.52429702215E+01  2.00000000000E-01  0.0000E+00  9.0
  3000022    1    4    4    0    0 -3.92397266454E+01 -2.98345083239E+01 -2.34816418931E+01  8.11248515569E+01  6.00000000000E+01  0.0000E+00  9.0
</event>
<event>
10    1   3.4312288E-02   4.7020000E+02  -1.0000000E+00   9.4170000E-02
       11   -1    0    0    0    0  0.00000000000E+00  0.00000000000E+00  2.21137039640E+02  2.21137039640E+02  0.00000000000E+00  0.0000E+00  9.0
      -11   -1    0    0    0    0  0.00000000000E+00  0.00000000000E+00 -2.49982842420E+02  2.49982842420E+02  0.00000000000E+00  0.0000E+00  9.0
  3000025    2    1    2    0    0  1.29096086978E+02  1.08669373000E+02  2.03542998696E+01  2.33406203473E+02  1.59966640258E+02  3.6304E-12  9.0
 -3000025    2    1    2    0    0 -1.29096086978E+02 -1.08669373000E+02 -4.92001026556E+01  2.37713678578E+02  1.60038465940E+02  3.7154E-12  9.0
       14    1    3    3    0    0  3.21697213319E+01 -1.48510054538E+01  1.12852720531E+01  3.71860282750E+01  0.00000000000E+00  0.0000E+00  9.0
      -13    1    3    3    0    0  3.64869682920E+01  6.32326913447E+01 -3.73653027120E+01  8.20112744023E+01  1.05700000000E-01  0.0000E+00  9.0
  3000022    1    3    3    0    0  6.04393973541E+01  6.02876871092E+01  4.64343305280E+01  1.14208900796E+02  6.00000000000E+01  0.0000E+00  9.0
      -14    1    4    4    0    0 -6.76139055826E+01 -2.71909086000E+01 -2.59271016198E+00  7.29226157280E+01  0.00000000000E+00  0.0000E+00  9.0
       13    1    4    4    0    0  1.52195659014E+01  1.46105258594E+01 -8.76819541388E+00  2.28472115459E+01  1.05700000000E-01  0.0000E+00  9.0
  3000022    1    4    4    0    0 -7.67017472966E+01 -9.60889902587E+01 -3.78391970796E+01  1.41943851304E+02  6.00000000000E+01  0.0000E+00  9.0
</event>
<event>
10    1   3.4312288E-02   4.8630000E+02  -1.0000000E+00   9.3800000E-02
       11   -1    0    0    0    0  0.00000000000E+00  0.00000000000E+00  2.36465763640E+02  2.36465763640E+02  0.00000000000E+00  0.0000E+00  9.0
      -11   -1    0    0    0    0  0.00000000000E+00  0.00000000000E+00 -2.49999877180E+02  2.49999877180E+02  0.00000000000E+00  0.0000E+00  9.0
  3000025    2    1    2    0    0  7.29875145507E+01 -1.68185592581E+01  1.60353885738E+02  2.38567434717E+02  1.59971906971E+02  2.0683E-12  9.0
 -3000025    2    1    2    0    0 -7.29875145507E+01  1.68185592581E+01 -1.73887999288E+02  2.47898206103E+02  1.60020133348E+02  1.8982E-13  9.0
        2    1    3    3  500    0  2.67341998603E+01 -2.74354265169E+01  1.10959152289E+02  1.17385491251E+02  3.00000000000E-03  0.0000E+00  9.0
       -1    1    3    3    0  500 -1.65810801215E+00  3.09216170344E+01  1.77158062161E+01  3.56755593802E+01  5.00000000000E-03  0.0000E+00  9.0
  3000022    1    3    3    0    0  4.79114227021E+01 -2.03047497756E+01  3.16789272326E+01  8.55063840856E+01  6.00000000000E+01  0.0000E+00  9.0
       -4    1    4    4    0  504 -6.56297269018E+01 -5.16965053556E-01 -6.96908708297E+01  9.57418472304E+01  1.46817165330E+00  0.0000E+00  9.0
        3    1    4    4  504    0  5.00784607514E+00  2.87910931389E+01  1.70825096137E+00  2.92739421293E+01  2.00000000000E-01  0.0000E+00  9.0
  3000022    1    4    4    0    0 -1.23656337240E+01 -1.14555688270E+01 -1.05905379420E+02  1.22882416743E+02  6.00000000000E+01  0.0000E+00  9.0
</event>
<event>
10    1   3.4312288E-02   4.9650000E+02  -1.0000000E+00   9.3570000E-02
       11   -1    0    0    0    0  0.00000000000E+00  0.00000000000E+00  2.46502184290E+02  2.46502184290E+02  0.00000000000E+00  0.0000E+00  9.0
      -11   -1    0    0    0    0  0.00000000000E+00  0.00000000000E+00 -2.49998075290E+02  2.49998075290E+02  0.00000000000E+00  0.0000E+00  9.0
  3000025    2    1    2    0    0  1.34519038474E+02 -1.31749849917E+02  2.18863075250E+01  2.48073609144E+02  1.60025343092E+02  1.2589E-12  9.0
 -3000025    2    1    2    0    0 -1.34519038474E+02  1.31749849917E+02 -2.53821985320E+01  2.48426650438E+02  1.60056708639E+02  7.9535E-13  9.0
       14    1    3    3    0    0  5.33894972982E+01 -1.11133371222E+02 -1.60317783507E+01  1.24330537432E+02  0.00000000000E+00  0.0000E+00  9.0
      -13    1    3    3    0    0  5.43642908648E+00  1.31092314364E+01  1.09927489063E+01  1.79515573439E+01  1.05700000000E-01  0.0000E+00  9.0
  3000022    1    3    3    0    0  7.56931120889E+01 -3.37257101324E+01  2.69253369692E+01  1.05791514369E+02  6.00000000000E+01  0.0000E+00  9.0
       -4    1    4    4    0  500 -6.83527307513E+01  8.18916202108E+01 -2.56521873440E+01  1.09720205548E+02  1.46817165330E+00  0.0000E+00  9.0
        3    1    4    4  500    0 -8.40401044535E+00 -1.27478477897E+01 -2.69873600908E+01  3.10079444579E+01  2.00000000000E-01  0.0000E+00  9.0
  3000022    1    4    4    0    0 -5.77622972778E+01  6.26060774967E+01  2.72573489027E+01  1.07698500433E+02  6.00000000000E+01  0.0000E+00  9.0
</event>
<event>
10    1   3.4312288E-02   4.9650000E+02  -1.0000000E+00   9.3570000E-02
       11   -1    0    0    0    0  0.00000000000E+00  0.00000000000E+00  2.46676736620E+02  2.46676736620E+02  0.00000000000E+00  0.0000E+00  9.0
      -11   -1    0    0    0    0  0.00000000000E+00  0.00000000000E+00 -2.49882741830E+02  2.49882741830E+02  0.00000000000E+00  0.0000E+00  9.0
  3000025    2    1    2    0    0  1.87737606602E+02  2.33825623799E+01 -1.73038897510E+01  2.48409713679E+02  1.60049392669E+02  9.0954E-13  9.0
 -3000025    2    1    2    0    0 -1.87737606602E+02 -2.33825623799E+01  1.40978845470E+01  2.48149764773E+02  1.59960627193E+02  8.3200E-13  9.0
        4    1    3    3  500    0  1.19530337825E+02  5.39865576313E+01 -2.67778326282E+01  1.33870302583E+02  1.46817165330E+00  0.0000E+00  9.0
       -3    1    3    3    0  500  7.15986296579E+00  1.07399324361E+00  2.13077691066E+01  2.25050688396E+01  2.00000000000E-01  0.0000E+00  9.0
  3000022    1    3    3    0    0  6.10474058113E+01 -3.16779884952E+01 -1.18338262293E+01  9.20343422567E+01  6.00000000000E+01  0.0000E+00  9.0
       -4    1    4    4    0  504 -1.47696103437E+01  2.16626531803E+01 -2.27830596652E+01  3.47654320875E+01  1.46817165330E+00  0.0000E+00  9.0
        3    1    4    4  504    0 -4.48410380897E+01 -5.13974464437E+01  6.31081810717E+00  6.85002381242E+01  2.00000000000E-01  0.0000E+00  9.0
  3000022    1    4    4    0    0 -1.28126958169E+02  6.35223088339E+00  3.05701261056E+01  1.44884094562E+02  6.00000000000E+01  0.0000E+00  9.0
</event>
<event>
10    1   3.4312288E-02   4.8060000E+02  -1.0000000E+00   9.3930000E-02
       11   -1    0    0    0    0  0.00000000000E+00  0.00000000000E+00  2.37377458020E+02  2.37377458020E+02  0.00000000000E+00  0.0000E+00  9.0
      -11   -1    0    0    0    0  0.00000000000E+00  0.00000000000E+00 -2.43285819060E+02  2.43285819060E+02  0.00000000000E+00  0.0000E+00  9.0
  3000025    2    1    2    0    0  7.96708483594E+01  1.05986378647E+02  1.17750672773E+02  2.38864269035E+02  1.60032376556E+02  1.4170E-13  9.0
 -3000025    2    1    2    0    0 -7.96708483594E+01 -1.05986378647E+02 -1.23659033813E+02  2.41799008055E+02  1.59983271362E+02  3.2717E-12  9.0
        2    1    3    3  500    0  2.06858340847E+01  3.76342675702E+01  8.46870873317E+01  9.49533811776E+01  3.00000000000E-03  0.0000E+00  9.0
       -1    1    3    3    0  500  6.11975960326E+01  4.17461242648E+01  1.27518150170E+01  7.51697642841E+01  5.00000000000E-03  0.0000E+00  9.0
  3000022    1    3    3    0    0 -2.21258175850E+00  2.66059868121E+01  2.03117704234E+01  6.87411235726E+01  6.00000000000E+01  0.0000E+00  9.0
       -4    1    4    4    0  504 -6.33102089155E+01 -3.46391390556E+01 -4.06138311346E+01  8.28232534671E+01  1.46817165330E+00  0.0000E+00  9.0
        3    1    4    4  504    0  1.30258507608E+01  1.14528471447E+01 -4.11047869165E+01  4.46148406162E+01  2.00000000000E-01  0.0000E+00  9.0
  3000022    1    4    4    0    0 -2.93864902052E+01 -8.28000867363E+01 -4.19404157627E+01  1.14360913972E+02  6.00000000000E+01  0.0000E+00  9.0
</event>
<event>
10    1   3.4312288E-02   4.8710000E+02  -1.0000000E+00   9.3780000E-02
       11   -1    0    0    0    0  0.00000000000E+00  0.00000000000E+00  2.46843720050E+02  2.46843720050E+02  0.00000000000E+00  0.0000E+00  9.0
      -11   -1    0    0    0    0  0.00000000000E+00  0.00000000000E+00 -2.40330283560E+02  2.40330283560E+02  0.00000000000E+00  0.0000E+00  9.0
  3000025    2    1    2    0    0  7.88679951820E+01 -1.64810443416E+02  2.17142156899E+01  2.43857393215E+02  1.60038364587E+02  1.3748E-12  9.0
 -3000025    2    1    2    0    0 -7.88679951820E+01  1.64810443416E+02 -1.52007792069E+01  2.43316610402E+02  1.59966453627E+02  1.8044E-13  9.0
        4    1    3    3  500    0  1.98334079187E+01 -6.22820347196E+01  5.89079232555E+01  8.80040616606E+01  1.46817165330E+00  0.0000E+00  9.0
       -3    1    3    3    0  500  1.80413178925E+01 -6.86032873998E+01 -2.16365694764E+01  7.41625332097E+01  2.00000000000E-01  0.0000E+00  9.0
  3000022    1    3    3    0    0  4.09932693713E+01 -3.39251212963E+01 -1.55571380892E+01  8.16907983450E+01  6.00000000000E+01  0.0000E+00  9.0
       -4    1    4    4    0  504  2.40807421569E+01  2.96976268896E+01  5.61424799924E-01  3.82661980279E+01  1.46817165330E+00  0.0000E+00  9.0
        3    1    4    4  504    0 -5.05229319662E+01  1.37753459398E+01 -2.79871482233E+01  5.93771612314E+01  2.00000000000E-01  0.0000E+00  9.0
  3000022    1    4    4    0    0 -5.24258053724E+01  1.21337470587E+02  1.22249442162E+01  1.45673251142E+02  6.00000000000E+01  0.0000E+00  9.0
</event>
<event>
10    1   3.4312288E-02   4.8700000E+02  -1.0000000E+00   9.3780000E-02
       11   -1    0    0    0    0  0.00000000000E+00  0.00000000000E+00  2.43478093890E+02  2.43478093890E+02  0.00000000000E+00  0.0000E+00  9.0
      -11   -1    0    0    0    0  0.00000000000E+00  0.00000000000E+00 -2.43515807850E+02  2.43515807850E+02  0.00000000000E+00  0.0000E+00  9.0
  3000025    2    1    2    0    0  5.24130588895E+00  1.05470062160E+02  1.50087892560E+02  2.43444701064E+02  1.59961063024E+02  4.3797E-13  9.0
 -3000025    2    1    2    0    0 -5.24130588895E+00 -1.05470062160E+02 -1.50125606530E+02  2.43549200671E+02  1.60084696683E+02  3.5119E-12  9.0
        4    1    3    3  500    0 -1.30523964511E+01  1.04277221855E+02  6.63010006991E+01  1.24266175094E+02  1.46817165330E+00  0.0000E+00  9.0
       -3    1    3    3    0  500  1.90832712378E+01 -7.00878772326E+00  7.26395278493E+00  2.15893343239E+01  2.00000000000E-01  0.0000E+00  9.0
  3000022    1    3    3    0    0 -7.89568897327E-01  8.20162802816E+00  7.65229390753E+01  9.75891916458E+01  6.00000000000E+01  0.0000E+00  9.0
       -4    1    4    4    0  504  4.33670557165E+01 -4.07726310267E+01 -4.88029510743E+01  7.69869633374E+01  1.46817165330E+00  0.0000E+00  9.0
        3    1    4    4  504    0 -2.85562349297E+01 -3.71934070456E+01 -3.71479007674E+00  4.70387898052E+01  2.00000000000E-01  0.0000E+00  9.0
  3000022    1    4    4    0    0 -2.00521266757E+01 -2.75040240881E+01 -9.76078653787E+01  1.19523447528E+02  6.00000000000E+01  0.0000E+00  9.0
</event>
<event>
10    1   3.4312288E-02   5.0000000E+02  -1.0000000E+00   9.3490000E-02
       11   -1    0    0    0    0  0.00000000000E+00  0.00000000000E+00  2.50000000000E+02  2.50000000000E+02  0.00000000000E+00  0.0000E+00  9.0
      -11   -1    0    0    0    0  0.00000000000E+00  0.00000000000E+00 -2.50000000000E+02  2.50000000000E+02  0.00000000000E+00  0.0000E+00  9.0
  3000025    2    1    2    0    0  1.90692554694E+02 -2.27281705632E+01  4.84038169337E+00  2.50009364719E+02  1.60003228090E+02  1.2548E-12  9.0
 -3000025    2    1    2    0    0 -1.90692554694E+02  2.27281705632E+01 -4.84038169337E+00  2.49990635283E+02  1.59973961261E+02  4.1071E-13  9.0
        2    1    3    3  500    0  1.10885912490E+02 -2.20450915750E+01  1.08121134020E+01  1.13571886735E+02  3.00000000000E-03  0.0000E+00  9.0
       -1    1    3    3    0  500  1.13226490321E+01  1.63418573421E+01  3.08979393303E+01  3.67415481758E+01  5.00000000000E-03  0.0000E+00  9.0
  3000022    1    3    3    0    0  6.84839931720E+01 -1.70249363297E+01 -3.68696710382E+01  9.96959298080E+01  6.00000000000E+01  0.0000E+00  9.0
      -14    1    4    4    0    0 -1.16232339925E+02 -1.22731248408E+01  2.44150836557E+01  1.19401351532E+02  0.00000000000E+00  0.0000E+00  9.0
       13    1    4    4    0    0  1.10599220973E+01  8.97000866516E+00  8.39729799847E+00  1.65320512465E+01  1.05700000000E-01  0.0000E+00  9.0
  3000022    1    4    4    0    0 -8.55201368655E+01  2.60312867393E+01 -3.76527633472E+01  1.14057232504E+02  6.00000000000E+01  0.0000E+00  9.0
</event>
<event>
10    1   3.4312288E-02   5.0000000E+02  -1.0000000E+00   9.3490000E-02
       11   -1    0    0    0    0  0.00000000000E+00  0.00000000000E+00  2.49999445810E+02  2.49999445810E+02  0.00000000000E+00  0.0000E+00  9.0
      -11   -1    0    0    0    0  0.00000000000E+00  0.00000000000E+00 -2.49998787500E+02  2.49998787500E+02  0.00000000000E+00  0.0000E+00  9.0
  3000025    2    1    2    0    0  2.70410685691E+01  1.40108790746E+02 -1.28530454525E+02  2.50011938013E+02  1.60075603309E+02  5.0830E-13  9.0
 -3000025    2    1    2    0    0 -2.70410685691E+01 -1.40108790746E+02  1.28531112835E+02  2.49986295298E+02  1.60035021906E+02  1.3280E-12  9.0
        2    1    3    3  500    0 -2.83869319816E+01 -1.15221468261E+00 -6.59778658792E+00  2.91663556665E+01  3.00000000000E-03  0.0000E+00  9.0
       -1    1    3    3    0  500  5.05204327062E+01  4.44343638361E+01 -2.70531628879E+01  7.25162082405E+01  5.00000000000E-03  0.0000E+00  9.0
  3000022    1    3    3    0    0  4.90756784511E+00  9.68266415924E+01 -9.48795050491E+01  1.48329374106E+02  6.00000000000E+01  0.0000E+00  9.0
      -14    1    4    4    0    0 -1.56707076456E+01 -1.26280573944E+01  7.34805091252E+01  7.61867713778E+01  0.00000000000E+00  0.0000E+00  9.0
       13    1    4    4    0    0 -2.35785726241E+01 -3.13798287481E+01 -1.26704240854E+01  4.12455277363E+01  1.05700000000E-01  0.0000E+00  9.0
  3000022    1    4    4    0    0  1.22082117003E+01 -9.61009046044E+01  6.77210277946E+01  1.32553996184E+02  6.00000000000E+01  0.0000E+00  9.0
</event>
<event>
10    1   3.4312288E-02   4.9290000E+02  -1.0000000E+00   9.3650000E-02
       11   -1    0    0    0    0  0.00000000000E+00  0.00000000000E+00  2.49993545630E+02  2.49993545630E+02  0.00000000000E+00  0.0000E+00  9.0
      -11   -1    0    0    0    0  0.00000000000E+00  0.00000000000E+00 -2.42959253830E+02  2.42959253830E+02  0.00000000000E+00  0.0000E+00  9.0
  3000025    2    1    2    0    0 -5.70791734349E+01 -1.66831392180E+02  6.73605589317E+01  2.47354969596E+02  1.59863349857E+02  1.4874E-12  9.0
 -3000025    2    1    2    0    0  5.70791734349E+01  1.66831392180E+02 -6.03262671237E+01  2.45597829860E+02  1.59963402283E+02  3.5948E-12  9.0
       14    1    3    3    0    0 -4.96779930335E+01 -8.60495618928E+01  3.21938494338E+01  1.04445555363E+02  0.00000000000E+00  0.0000E+00  9.0
      -13    1    3    3    0    0  3.33480008321E+01 -4.73066629914E+01  2.21562283061E+01  6.19751494401E+01  1.05700000000E-01  0.0000E+00  9.0
  3000022    1    3    3    0    0 -4.07491812335E+01 -3.34751672956E+01  1.30104811923E+01  8.09342647926E+01  6.00000000000E+01  0.0000E+00  9.0
       -4    1    4    4    0  500  3.93451094240E+01  1.44272276993E+01 -2.66328388126E+01  4.96754080597E+01  1.46817165330E+00  0.0000E+00  9.0
        3    1    4    4  500    0  1.31736535363E+01  6.55040810000E+01  2.92094715784E+01  7.29216223423E+01  2.00000000000E-01  0.0000E+00  9.0
  3000022    1    4    4    0    0  4.56041047504E+00  8.69000834823E+01 -6.29028998897E+01  1.23000799459E+02  6.00000000000E+01  0.0000E+00  9.0
</event>
<event>
10    1   3.4312288E-02   4.9290000E+02  -1.0000000E+00   9.3650000E-02
       11   -1    0    0    0    0  0.00000000000E+00  0.00000000000E+00  2.49609913310E+02  2.49609913310E+02  0.00000000000E+00  0.0000E+00  9.0
      -11   -1    0    0    0    0  0.00000000000E+00  0.00000000000E+00 -2.43343027890E+02  2.43343027890E+02  0.00000000000E+00  0.0000E+00  9.0
  3000025    2    1    2    0    0  1.42237627440E+01  1.07410011399E+02  1.55872294381E+02  2.48528128081E+02  1.60408329948E+02  1.1160E-12  9.0
 -3000025    2    1    2    0    0 -1.42237627440E+01 -1.07410011399E+02 -1.49605408961E+02  2.44424813118E+02  1.60070249896E+02  3.2334E-12  9.0
        4    1    3    3  500    0  3.00156358429E+01 -9.06614522699E-01  1.71423898433E+01  3.46089208512E+01  1.46817165330E+00  0.0000E+00  9.0
       -3    1    3    3    0  500  7.58765567264E-01  8.77634145203E+01  1.13979576662E+02  1.43855401530E+02  2.00000000000E-01  0.0000E+00  9.0
  3000022    1    3    3    0    0 -1.65506386659E+01  2.05532114010E+01  2.47503278761E+01  7.00638056996E+01  6.00000000000E+01  0.0000E+00  9.0
       -2    1    4    4    0  504 -5.38420561131E+01 -5.65492490619E+01 -9.98029210839E+01  1.26717826851E+02  3.00000000000E-03  0.0000E+00  9.0
        1    1    4    4  504    0  9.12107379178E+00 -1.77624696795E+00  1.11289831403E+01  1.44983906397E+01  5.00000000000E-03  0.0000E+00  9.0
  3000022    1    4    4    0    0  3.04972195773E+01 -4.90845153684E+01 -6.09314710179E+01  1.03208595627E+02  6.00000000000E+01  0.0000E+00  9.0
</event>
<event>
10    1   3.4312288E-02   3.7730000E+02  -1.0000000E+00   9.6710000E-02
       11   -1    0    0    0    0  0.00000000000E+00  0.00000000000E+00  1.44245621620E+02  1.44245621620E+02  0.00000000000E+00  0.0000E+00  9.0
      -11   -1    0    0    0    0  0.00000000000E+00  0.00000000000E+00 -2.46729452830E+02  2.46729452830E+02  0.00000000000E+00  0.0000E+00  9.0
  3000025    2    1    2    0    0  4.35997083121E-01 -9.90580917535E+01 -3.67970716079E+01  1.91705869492E+02  1.59951305976E+02  2.9315E-12  9.0
 -3000025    2    1    2    0    0 -4.35997083121E-01  9.90580917535E+01 -6.56867596051E+01  1.99269204955E+02  1.59939895025E+02  5.9634E-13  9.0
        2    1    3    3  500    0  5.74560440933E+00 -3.37001101514E+01  2.02035882044E+01  3.97101294329E+01  3.00000000000E-03  0.0000E+00  9.0
       -1    1    3    3    0  500 -2.10531858568E+01  2.25061237795E+01 -2.52825811072E+01  3.98619012936E+01  5.00000000000E-03  0.0000E+00  9.0
  3000022    1    3    3    0    0  1.57435785303E+01 -8.78641053816E+01 -3.17180787051E+01  1.12133838765E+02  6.00000000000E+01  0.0000E+00  9.0
       -4    1    4    4    0  504  3.02161359320E+00 -1.46202189863E+01 -1.92021980189E+01  2.43672092919E+01  1.46817165330E+00  0.0000E+00  9.0
        3    1    4    4  504    0  4.20477600834E+01  6.83295600500E+01 -1.56271648711E+01  8.17385538566E+01  2.00000000000E-01  0.0000E+00  9.0
  3000022    1    4    4    0    0 -4.55053707600E+01  4.53487506893E+01 -3.08573967151E+01  9.31634418059E+01  6.00000000000E+01  0.0000E+00  9.0
</event>
<event>
10    1   3.4312288E-02   4.7950000E+02  -1.0000000E+00   9.3960000E-02
       11   -1    0    0    0    0  0.00000000000E+00  0.00000000000E+00  2.43935466460E+02  2.43935466460E+02  0.00000000000E+00  0.0000E+00  9.0
      -11   -1    0    0    0    0  0.00000000000E+00  0.00000000000E+00 -2.35596151380E+02  2.35596151380E+02  0.00000000000E+00  0.0000E+00  9.0
  3000025    2    1    2    0    0 -1.27421718048E+02  1.24310723471E+02  1.61947154212E+01  2.39940233560E+02  1.60061227888E+02  1.7839E-13  9.0
 -3000025    2    1    2    0    0  1.27421718048E+02 -1.24310723471E+02 -7.85540034468E+00  2.39591384288E+02  1.60165145741E+02  1.2614E-12  9.0
        4    1    3    3  500    0 -7.72218837039E+01  8.55836952610E+01  4.01396298457E+01  1.22070199596E+02  1.46817165330E+00  0.0000E+00  9.0
       -3    1    3    3    0  500 -3.01524713798E+01  2.59147782012E+01 -3.42875960550E+01  5.25016809518E+01  2.00000000000E-01  0.0000E+00  9.0
  3000022    1    3    3    0    0 -2.00473629632E+01  1.28122500085E+01  1.03426816302E+01  6.53683530109E+01  6.00000000000E+01  0.0000E+00  9.0
       -4    1    4    4    0  504  2.35006131940E+01  2.10648002186E+01 -2.07694956898E+01  3.78091537588E+01  1.46817165330E+00  0.0000E+00  9.0
        3    1    4    4  504    0  5.68054493060E+01 -4.62838687254E+01  2.16944363714E+01  7.64182186688E+01  2.00000000000E-01  0.0000E+00  9.0
  3000022    1    4    4    0    0  4.71156555488E+01 -9.90916549643E+01 -8.78034102672E+00  1.25364011861E+02  6.00000000000E+01  0.0000E+00  9.0
</event>
<event>
10    1   3.4312288E-02   4.8700000E+02  -1.0000000E+00   9.3780000E-02
       11   -1    0    0    0    0  0.00000000000E+00  0.00000000000E+00  2.37275384840E+02  2.37275384840E+02  0.00000000000E+00  0.0000E+00  9.0
      -11   -1    0    0    0    0  0.00000000000E+00  0.00000000000E+00 -2.49921504450E+02  2.49921504450E+02  0.00000000000E+00  0.0000E+00  9.0
  3000025    2    1    2    0    0  1.50356297496E+02  5.44655839640E+00  9.90182941416E+01  2.40603302683E+02  1.59526315987E+02  2.0754E-12  9.0
 -3000025    2    1    2    0    0 -1.50356297496E+02 -5.44655839640E+00 -1.11664413752E+02  2.46593586608E+02  1.60320848496E+02  9.8690E-13  9.0
       14    1    3    3    0    0  8.16754293782E+01  1.27053678189E+01  3.02551852784E+01  8.80208973583E+01  0.00000000000E+00  0.0000E+00  9.0
      -13    1    3    3    0    0 -1.26243130864E+01  2.15491510775E+01 -3.27053397403E+00  2.51882265757E+01  1.05700000000E-01  0.0000E+00  9.0
  3000022    1    3    3    0    0  8.13051812049E+01 -2.88079605000E+01  7.20336428373E+01  1.27394178750E+02  6.00000000000E+01  0.0000E+00  9.0
       -4    1    4    4    0  500  4.04280140962E+00 -1.88103878065E+01 -5.83329485890E+01  6.14415441844E+01  1.46817165330E+00  0.0000E+00  9.0
        3    1    4    4  500    0 -6.85108616296E+01  2.04147680581E+01 -3.03255991600E+01  7.76542521728E+01  2.00000000000E-01  0.0000E+00  9.0
  3000022    1    4    4    0    0 -8.58882372762E+01 -7.05093864811E+00 -2.30058660025E+01  1.07497790251E+02  6.00000000000E+01  0.0000E+00  9.0
</event>
<event>
10    1   3.4312288E-02   4.7370000E+02  -1.0000000E+00   9.4090000E-02
       11   -1    0    0    0    0  0.00000000000E+00  0.00000000000E+00  2.50000000000E+02  2.50000000000E+02  0.00000000000E+00  0.0000E+00  9.0
      -11   -1    0    0    0    0  0.00000000000E+00  0.00000000000E+00 -2.24416242400E+02  2.24416242400E+02  0.00000000000E+00  0.0000E+00  9.0
  3000025    2    1    2    0    0 -1.41977680636E+02  7.26705871186E+01 -5.81248916827E+01  2.33512907751E+02  1.60346808581E+02  3.2176E-12  9.0
 -3000025    2    1    2    0    0  1.41977680636E+02 -7.26705871186E+01  8.37086492777E+01  2.40903334648E+02  1.59964379316E+02  9.8832E-13  9.0
        2    1    3    3  500    0  5.47280479152E+00 -2.07624571102E+01  4.98338874564E+00  2.20423544552E+01  3.00000000000E-03  0.0000E+00  9.0
       -1    1    3    3    0  500 -8.35000021978E+01  2.97285856013E+01 -5.69833605142E+00  8.88172856354E+01  5.00000000000E-03  0.0000E+00  9.0
  3000022    1    3    3    0    0 -6.39504832294E+01  6.37044586277E+01 -5.74099443770E+01  1.22653267660E+02  6.00000000000E+01  0.0000E+00  9.0
       -2    1    4    4    0  504  1.03345643335E+02 -4.64244654754E+01  3.23343206945E+01  1.17817915848E+02  3.00000000000E-03  0.0000E+00  9.0
        1    1    4    4  504    0  7.28195267501E+00 -1.68162551697E+01  5.15761377654E+01  5.47349183290E+01  5.00000000000E-03  0.0000E+00  9.0
  3000022    1    4    4    0    0  3.13500846258E+01 -9.42986647396E+00 -2.01809181922E-01  6.83505004715E+01  6.00000000000E+01  0.0000E+00  9.0
</event>
<event>
10    1   3.4312288E-02   4.9110000E+02  -1.0000000E+00   9.3690000E-02
       11   -1    0    0    0    0  0.00000000000E+00  0.00000000000E+00  2.44017270710E+02  2.44017270710E+02  0.00000000000E+00  0.0000E+00  9.0
      -11   -1    0    0    0    0  0.00000000000E+00  0.00000000000E+00 -2.47139306640E+02  2.47139306640E+02  0.00000000000E+00  0.0000E+00  9.0
  3000025    2    1    2    0    0  1.53491729866E+02  5.51681430024E+01  8.83969457999E+01  2.45030073701E+02  1.60070240368E+02  1.8101E-12  9.0
 -3000025    2    1    2    0    0 -1.53491729866E+02 -5.51681430024E+01 -9.15189817209E+01  2.46126503653E+02  1.59997802003E+02  4.1386E-12  9.0
        2    1    3    3  500    0  8.75836857531E+01 -7.32053710125E+00  4.53070791139E+00  8.80057929726E+01  3.00000000000E-03  0.0000E+00  9.0
       -1    1    3    3    0  500  1.01039223237E+01  1.58574715504E+00  4.75898991236E+01  4.86765073106E+01  5.00000000000E-03  0.0000E+00  9.0
  3000022    1    3    3    0    0  5.58041217893E+01  6.09029329486E+01  3.62763387653E+01  1.08347773418E+02  6.00000000000E+01  0.0000E+00  9.0
       -2    1    4    4    0  504 -1.34299424252E+02 -2.58322984855E+01 -5.87703082108E+01  1.48854264755E+02  3.00000000000E-03  0.0000E+00  9.0
        1    1    4    4  504    0 -1.74330022727E+01  9.74011772360E+00 -7.19119404371E+00  2.12248146820E+01  5.00000000000E-03  0.0000E+00  9.0
  3000022    1    4    4    0    0 -1.75930334076E+00 -3.90759622407E+01 -2.55574794665E+01  7.60474242165E+01  6.00000000000E+01  0.0000E+00  9.0
</event>
<event>
10    1   3.4312288E-02   4.9970000E+02  -1.0000000E+00   9.3500000E-02
       11   -1    0    0    0    0  0.00000000000E+00  0.00000000000E+00  2.49676651840E+02  2.49676651840E+02  0.00000000000E+00  0.0000E+00  9.0
      -11   -1    0    0    0    0  0.00000000000E+00  0.00000000000E+00 -2.50000000000E+02  2.50000000000E+02  0.00000000000E+00  0.0000E+00  9.0
  3000025    2    1    2    0    0  1.79566331303E+02  3.06762233589E+01 -6.10334301196E+01  2.49987124546E+02  1.59948069164E+02  1.3616E-13  9.0
 -3000025    2    1    2    0    0 -1.79566331303E+02 -3.06762233589E+01  6.07100819596E+01  2.49689527299E+02  1.59605914595E+02  3.1346E-13  9.0
        2    1    3    3  500    0  3.05369461142E+01  4.23023853231E+01 -1.92805274515E+01  5.56213594747E+01  3.00000000000E-03  0.0000E+00  9.0
       -1    1    3    3    0  500  4.68973040313E+01 -3.48430148173E+01 -4.47961057830E+01  7.36212192597E+01  5.00000000000E-03  0.0000E+00  9.0
  3000022    1    3    3    0    0  1.02132081158E+02  2.32168528525E+01  3.04320311501E+00  1.20744545811E+02  6.00000000000E+01  0.0000E+00  9.0
       -2    1    4    4    0  504 -8.69581188573E+01 -1.52094945907E+01  6.84102952838E+01  1.11682638179E+02  3.00000000000E-03  0.0000E+00  9.0
        1    1    4    4  504    0 -5.57306411651E+01  1.53666976379E+01 -1.77454011950E+01  6.04726305823E+01  5.00000000000E-03  0.0000E+00  9.0
  3000022    1    4    4    0    0 -3.68775712811E+01 -3.08334264062E+01  1.00451878707E+01  7.75342585371E+01  6.00000000000E+01  0.0000E+00  9.0
</event>
<event>
10    1   3.4312288E-02   5.0000000E+02  -1.0000000E+00   9.3490000E-02
       11   -1    0    0    0    0  0.00000000000E+00  0.00000000000E+00  2.50000000000E+02  2.50000000000E+02  0.00000000000E+00  0.0000E+00  9.0
      -11   -1    0    0    0    0  0.00000000000E+00  0.00000000000E+00 -2.49999999980E+02  2.49999999980E+02  0.00000000000E+00  0.0000E+00  9.0
  3000025    2    1    2    0    0 -6.74700360332E+01  3.05235994127E+01 -1.77328925069E+02  2.49975678757E+02  1.59869935949E+02  2.5105E-12  9.0
 -3000025    2    1    2    0    0  6.74700360332E+01 -3.05235994127E+01  1.77328925089E+02  2.50024321212E+02  1.59945983510E+02  1.6131E-12  9.0
        2    1    3    3  500    0 -4.48140106440E+00  2.13923908420E+01  6.53772263531E+00  2.28135741981E+01  3.00000000000E-03  0.0000E+00  9.0
       -1    1    3    3    0  500 -7.08171023497E+01 -5.67753755942E+00 -1.01409537175E+02  1.23819185399E+02  5.00000000000E-03  0.0000E+00  9.0
  3000022    1    3    3    0    0  7.82846738071E+00  1.48087461301E+01 -8.24571105308E+01  1.03342919160E+02  6.00000000000E+01  0.0000E+00  9.0
      -14    1    4    4    0    0  2.88187842447E+01 -6.29019831636E+01  5.88222150246E+01  9.08142873762E+01  0.00000000000E+00  0.0000E+00  9.0
       13    1    4    4    0    0  1.25261044882E+01  1.08456630863E+01  7.70377687534E+01  7.87994967524E+01  1.05700000000E-01  0.0000E+00  9.0
  3000022    1    4    4    0    0  2.61251473004E+01  2.15327206646E+01  4.14689413115E+01  8.04105370843E+01  6.00000000000E+01  0.0000E+00  9.0
</event>
<event>
10    1   3.4312288E-02   4.9230000E+02  -1.0000000E+00   9.3660000E-02
       11   -1    0    0    0    0  0.00000000000E+00  0.00000000000E+00  2.47013226970E+02  2.47013226970E+02  0.00000000000E+00  0.0000E+00  9.0
      -11   -1    0    0    0    0  0.00000000000E+00  0.00000000000E+00 -2.45337194300E+02  2.45337194300E+02  0.00000000000E+00  0.0000E+00  9.0
  3000025    2    1    2    0    0  1.53594214676E+02  8.19686900364E+01  6.92879568191E+01  2.46376366544E+02  1.59970135035E+02  4.5814E-14  9.0
 -3000025    2    1    2    0    0 -1.53594214676E+02 -8.19686900364E+01 -6.76119241531E+01  2.45974054726E+02  1.60068155429E+02  1.0565E-12  9.0
        2    1    3    3  500    0 -2.25167276207E+01  2.57589277815E+00  2.25937615100E+01  3.20018173628E+01  3.00000000000E-03  0.0000E+00  9.0
       -1    1    3    3    0  500  5.57031900832E+01  3.03736299355E+01 -1.01385067782E+00  6.34541621890E+01  5.00000000000E-03  0.0000E+00  9.0
  3000022    1    3    3    0    0  1.20407752214E+02  4.90191673238E+01  4.77080459872E+01  1.50920386993E+02  6.00000000000E+01  0.0000E+00  9.0
       -2    1    4    4    0  504  5.90434658582E+00 -3.93604531748E+01 -2.34866906437E+01  4.62139722284E+01  3.00000000000E-03  0.0000E+00  9.0
        1    1    4    4  504    0 -2.56176755605E+01  1.44234871778E+01  1.32183965005E+01  3.22339621290E+01  5.00000000000E-03  0.0000E+00  9.0
  3000022    1    4    4    0    0 -1.33880885702E+02 -5.70317240399E+01 -5.73436300097E+01  1.67526120369E+02  6.00000000000E+01  0.0000E+00  9.0
</event>
<event>
10    1   3.4312288E-02   4.9990000E+02  -1.0000000E+00   9.3490000E-02
       11   -1    0    0    0    0  0.00000000000E+00  0.00000000000E+00  2.50000000000E+02  2.50000000000E+02  0.00000000000E+00  0.0000E+00  9.0
      -11   -1    0    0    0    0  0.00000000000E+00  0.00000000000E+00 -2.49858475970E+02  2.49858475970E+02  0.00000000000E+00  0.0000E+00  9.0
  3000025    2    1    2    0    0 -8.71349706834E+01  5.58228517614E+01  1.61934819673E+02  2.49883244516E+02  1.59718678221E+02  4.2062E-12  9.0
 -3000025    2    1    2    0    0  8.71349706834E+01 -5.58228517614E+01 -1.61793295653E+02  2.49975231457E+02  1.60005787172E+02  5.3273E-13  9.0
       14    1    3    3    0    0 -8.39414411162E-01  1.24193278523E+01 -4.53366634104E+00  1.32475828493E+01  0.00000000000E+00  0.0000E+00  9.0
      -13    1    3    3    0    0 -4.63857447461E+01 -2.17316056245E+01  1.16797847627E+02  1.27536851072E+02  1.05700000000E-01  0.0000E+00  9.0
  3000022    1    3    3    0    0 -3.99098115261E+01  6.51351295331E+01  4.96706383876E+01  1.09098810595E+02  6.00000000000E+01  0.0000E+00  9.0
       -2    1    4    4    0  500  2.38836933244E+01 -6.86994896704E+01 -4.13570718978E+01  8.36687402364E+01  3.00000000000E-03  0.0000E+00  9.0
        1    1    4    4  500    0 -6.58884588950E+00  2.12099398326E+01 -2.19420957154E+01  3.12206666688E+01  5.00000000000E-03  0.0000E+00  9.0
  3000022    1    4    4    0    0  6.98401232487E+01 -8.33330192257E+00 -9.84941280399E+01  1.35085824551E+02  6.00000000000E+01  0.0000E+00  9.0
</event>
<event>
10    1   3.4312288E-02   4.9110000E+02  -1.0000000E+00   9.3690000E-02
       11   -1    0    0    0    0  0.00000000000E+00  0.00000000000E+00  2.44537944240E+02  2.44537944240E+02  0.00000000000E+00  0.0000E+00  9.0
      -11   -1    0    0    0    0  0.00000000000E+00  0.00000000000E+00 -2.46532957860E+02  2.46532957860E+02  0.00000000000E+00  0.0000E+00  9.0
  3000025    2    1    2    0    0 -1.32639474220E+02 -1.12397625060E+02  6.56654397442E+01  2.45297454310E+02  1.60101326895E+02  1.1981E-13  9.0
 -3000025    2    1    2    0    0  1.32639474220E+02  1.12397625060E+02 -6.76604533692E+01  2.45773447788E+02  1.60000607645E+02  6.1220E-13  9.0
        4    1    3    3  500    0 -6.86246919204E+01 -4.41258536385E+01  4.34348539495E+01  9.24401501844E+01  1.46817165330E+00  0.0000E+00  9.0
       -3    1    3    3    0  500  1.91103925080E+01  3.28148833093E+00  1.99452439829E+01  2.78177645582E+01  2.00000000000E-01  0.0000E+00  9.0
  3000022    1    3    3    0    0 -8.31251748064E+01 -7.15532597531E+01  2.28534181120E+00  1.25039539567E+02  6.00000000000E+01  0.0000E+00  9.0
       -4    1    4    4    0  504  6.94271223601E+01  7.19319047864E+00 -4.09928244230E+01  8.09594620204E+01  1.46817165330E+00  0.0000E+00  9.0
        3    1    4    4  504    0  4.76203871769E+01  7.83208190774E+01  1.33206937961E+00  9.16715134852E+01  2.00000000000E-01  0.0000E+00  9.0
  3000022    1    4    4    0    0  1.55919646840E+01  2.68836155046E+01 -2.79996983263E+01  7.31424722830E+01  6.00000000000E+01  0.0000E+00  9.0
</event>
<event>
10    1   3.4312288E-02   5.0000000E+02  -1.0000000E+00   9.3490000E-02
       11   -1    0    0    0    0  0.00000000000E+00  0.00000000000E+00  2.49999999580E+02  2.49999999580E+02  0.00000000000E+00  0.0000E+00  9.0
      -11   -1    0    0    0    0  0.00000000000E+00  0.00000000000E+00 -2.49999913910E+02  2.49999913910E+02  0.00000000000E+00  0.0000E+00  9.0
  3000025    2    1    2    0    0  2.30950916438E+01  1.31055852739E+02 -1.38565078746E+02  2.49990947775E+02  1.59956785185E+02  1.9849E-13  9.0
 -3000025    2    1    2    0    0 -2.30950916438E+01 -1.31055852739E+02  1.38565164416E+02  2.50008965711E+02  1.59984869131E+02  1.6097E-12  9.0
        2    1    3    3  500    0 -1.60506816031E+01  6.48428979571E+01  3.90929630597E-01  6.68010376445E+01  3.00000000000E-03  0.0000E+00  9.0
       -1    1    3    3    0  500  2.46754768168E+01  4.72644886382E+01 -4.86473674981E+01  7.21760170130E+01  5.00000000000E-03  0.0000E+00  9.0
  3000022    1    3    3    0    0  1.44702964298E+01  1.89484661438E+01 -9.03086408768E+01  1.11013893117E+02  6.00000000000E+01  0.0000E+00  9.0
       -4    1    4    4    0  504  2.31235183295E+01 -3.69977650476E+01  5.93449692422E+01  7.36716541202E+01  1.46817165330E+00  0.0000E+00  9.0
        3    1    4    4  504    0 -1.56148569651E+01 -5.28096537375E+01 -1.12861642314E+01  5.62147737608E+01  2.00000000000E-01  0.0000E+00  9.0
  3000022    1    4    4    0    0 -3.06037530088E+01 -4.12484339544E+01  9.05063594049E+01  1.20122537830E+02  6.00000000000E+01  0.0000E+00  9.0
</event>
<event>
10    1   3.4312288E-02   4.9770000E+02  -1.0000000E+00   9.3540000E-02
       11   -1    0    0    0    0  0.00000000000E+00  0.00000000000E+00  2.47696549870E+02  2.47696549870E+02  0.00000000000E+00  0.0000E+00  9.0
      -11   -1    0    0    0    0  0.00000000000E+00  0.00000000000E+00 -2.50000000000E+02  2.50000000000E+02  0.00000000000E+00  0.0000E+00  9.0
  3000025    2    1    2    0    0 -1.05575641323E+01  1.87244068268E+02  3.31358648771E+01  2.48501004695E+02  1.59633832664E+02  3.2802E-12  9.0
 -3000025    2    1    2    0    0  1.05575641323E+01 -1.87244068268E+02 -3.54393150021E+01  2.49195545179E+02  1.60220696002E+02  1.4652E-12  9.0
        2    1    3    3  500    0 -1.33201096227E+01 -1.11373902847E+01 -1.24695131747E+01  2.13765186718E+01  3.00000000000E-03  0.0000E+00  9.0
       -1    1    3    3    0  500 -2.74893186327E+01  9.73832817209E+01  2.11169986278E+01  1.03368727639E+02  5.00000000000E-03  0.0000E+00  9.0
  3000022    1    3    3    0    0  3.02518641231E+01  1.00998176832E+02  2.44883794235E+01  1.23755758384E+02  6.00000000000E+01  0.0000E+00  9.0
       -4    1    4    4    0  504  3.31978159982E+00 -7.24570946600E+01  8.79098132322E+00  7.30786452875E+01  1.46817165330E+00  0.0000E+00  9.0
        3    1    4    4  504    0 -5.62947320381E+00  2.08468165750E+01 -5.01720180965E+00  2.21696423936E+01  2.00000000000E-01  0.0000E+00  9.0
  3000022    1    4    4    0    0  1.28672557363E+01 -1.35633790183E+02 -3.92130945157E+01  1.53947257498E+02  6.00000000000E+01  0.0000E+00  9.0
</event>
<event>
10    1   3.4312288E-02   4.0870000E+02  -1.0000000E+00   9.5780000E-02
       11   -1    0    0    0    0  0.00000000000E+00  0.00000000000E+00  2.30735312900E+02  2.30735312900E+02  0.00000000000E+00  0.0000E+00  9.0
      -11   -1    0    0    0    0  0.00000000000E+00  0.00000000000E+00 -1.80994551410E+02  1.80994551410E+02  0.00000000000E+00  0.0000E+00  9.0
  3000025    2    1    2    0    0 -9.77380100687E+01 -7.58854253012E+01  5.66444152116E+01  2.10036523802E+02  1.59985734273E+02  2.4290E-13  9.0
 -3000025    2    1    2    0    0  9.77380100687E+01  7.58854253012E+01 -6.90365371904E+00  2.01693340509E+02  1.59126449045E+02  4.1726E-13  9.0
        2    1    3    3  500    0 -8.92925592188E+00 -2.58780987450E+01 -2.15330755390E+01  3.48293117523E+01  3.00000000000E-03  0.0000E+00  9.0
       -1    1    3    3    0  500 -6.75392019989E+00  1.24481703859E+01  5.08865944779E+01  5.28206200890E+01  5.00000000000E-03  0.0000E+00  9.0
  3000022    1    3    3    0    0 -8.20548339469E+01 -6.24554969421E+01  2.72908962729E+01  1.22386591961E+02  6.00000000000E+01  0.0000E+00  9.0
       -4    1    4    4    0  504  1.07176858878E+00 -1.38898333064E+00  2.59907417744E+01  2.60912274258E+01  1.46817165330E+00  0.0000E+00  9.0
        3    1    4    4  504    0  8.85298420572E+01  2.47778531064E+01 -2.37040634352E+01  9.49389149009E+01  2.00000000000E-01  0.0000E+00  9.0
  3000022    1    4    4    0    0  8.13639942270E+00  5.24965555250E+01 -9.19033205786E+00  8.06631981817E+01  6.00000000000E+01  0.0000E+00  9.0
</event>
<event>
10    1   3.4312288E-02   4.8970000E+02  -1.0000000E+00   9.3720000E-02
       11   -1    0    0    0    0  0.00000000000E+00  0.00000000000E+00  2.39846897640E+02  2.39846897640E+02  0.00000000000E+00  0.0000E+00  9.0
      -11   -1    0    0    0    0  0.00000000000E+00  0.00000000000E+00 -2.49987335770E+02  2.49987335770E+02  0.00000000000E+00  0.0000E+00  9.0
  3000025    2    1    2    0    0  5.92997903978E+01  1.62640300521E+02  5.60807893322E+01  2.42421311783E+02  1.60170861832E+02  5.6378E-13  9.0
 -3000025    2    1    2    0    0 -5.92997903978E+01 -1.62640300521E+02 -6.62212274572E+01  2.47412921631E+02  1.63888896297E+02  5.2520E-12  9.0
        4    1    3    3  500    0  3.25628347410E+01  1.05726374916E+02 -1.85331574232E+01  1.12178598722E+02  1.46817165330E+00  0.0000E+00  9.0
       -3    1    3    3    0  500  2.83996554676E+01  1.38230752673E+01  3.19201192864E+01  4.49060336233E+01  2.00000000000E-01  0.0000E+00  9.0
  3000022    1    3    3    0    0 -1.66269981077E+00  4.30908503375E+01  4.26938274691E+01  8.53366794376E+01  6.00000000000E+01  0.0000E+00  9.0
      -14    1    4    4    0    0 -9.31542788458E+00 -5.97890510691E+01 -4.93247113684E+01  7.80668622143E+01  0.00000000000E+00  0.0000E+00  9.0
       13    1    4    4    0    0 -6.59590533026E+01 -3.66007954950E+01  6.10343812184E+00  7.56801035467E+01  1.05700000000E-01  0.0000E+00  9.0
  3000022    1    4    4    0    0  1.59746907900E+01 -6.62504539569E+01 -2.29999542104E+01  9.36659558698E+01  6.00000000000E+01  0.0000E+00  9.0
</event>
<event>
10    1   3.4312288E-02   4.4790000E+02  -1.0000000E+00   9.4720000E-02
       11   -1    0    0    0    0  0.00000000000E+00  0.00000000000E+00  2.10835724910E+02  2.10835724910E+02  0.00000000000E+00  0.0000E+00  9.0
      -11   -1    0    0    0    0  0.00000000000E+00  0.00000000000E+00 -2.37850743810E+02  2.37850743810E+02  0.00000000000E+00  0.0000E+00  9.0
  3000025    2    1    2    0    0 -1.33651582990E+02 -8.12374448890E+01 -2.46551921519E+01  2.24946171398E+02  1.59783082454E+02  2.3816E-14  9.0
 -3000025    2    1    2    0    0  1.33651582990E+02  8.12374448890E+01 -2.35982674062E+00  2.23740297325E+02  1.59974634792E+02  1.6880E-12  9.0
       14    1    3    3    0    0 -2.45230796304E+00 -4.14941091075E+01  3.24529328292E+01  5.27348817595E+01  0.00000000000E+00  0.0000E+00  9.0
      -13    1    3    3    0    0 -3.14361184182E+01 -1.33942045935E+01 -3.83848511577E+01  5.13910714890E+01  1.05700000000E-01  0.0000E+00  9.0
  3000022    1    3    3    0    0 -9.97631566092E+01 -2.63491311880E+01 -1.87232738236E+01  1.20820218149E+02  6.00000000000E+01  0.0000E+00  9.0
       -2    1    4    4    0  500  4.87555092196E+01  1.11191036009E+01 -5.26989014481E+01  7.26492144967E+01  3.00000000000E-03  0.0000E+00  9.0
        1    1    4    4  500    0  5.39350419112E+01  4.47599591933E+01  2.03594656565E+01  7.29859613883E+01  5.00000000000E-03  0.0000E+00  9.0
  3000022    1    4    4    0    0  3.09610318587E+01  2.53583820948E+01  2.99796090509E+01  7.81051214394E+01  6.00000000000E+01  0.0000E+00  9.0
</event>
<event>
10    1   3.4312288E-02   4.8540000E+02  -1.0000000E+00   9.3820000E-02
       11   -1    0    0    0    0  0.00000000000E+00  0.00000000000E+00  2.35666474490E+02  2.35666474490E+02  0.00000000000E+00  0.0000E+00  9.0
      -11   -1    0    0    0    0  0.00000000000E+00  0.00000000000E+00 -2.49983568950E+02  2.49983568950E+02  0.00000000000E+00  0.0000E+00  9.0
  3000025    2    1    2    0    0 -7.97320275256E+01  1.36267406781E+02  8.42860977871E+01  2.40044442940E+02  1.59972453697E+02  8.2859E-13  9.0
 -3000025    2    1    2    0    0  7.97320275256E+01 -1.36267406781E+02 -9.86031922521E+01  2.45605600507E+02  1.60229582518E+02  1.5861E-12  9.0
        2    1    3    3  500    0  2.85787515964E+00  4.18249404474E+01  3.27394161639E+01  5.31917519321E+01  3.00000000000E-03  0.0000E+00  9.0
       -1    1    3    3    0  500 -3.78198886054E+01  3.09596371516E+00 -2.56094728548E+01  4.57796252753E+01  5.00000000000E-03  0.0000E+00  9.0
  3000022    1    3    3    0    0 -4.47700140805E+01  9.13465026184E+01  7.71561544780E+01  1.41073065733E+02  6.00000000000E+01  0.0000E+00  9.0
       -4    1    4    4    0  504 -1.74208829145E+01 -2.13140084408E+00  8.73229049414E+00  1.96580379579E+01  1.46817165330E+00  0.0000E+00  9.0
        3    1    4    4  504    0  4.34744190699E+01 -1.03949832067E+02 -5.62387714078E+01  1.25930266853E+02  2.00000000000E-01  0.0000E+00  9.0
  3000022    1    4    4    0    0  5.36784913705E+01 -3.01861738695E+01 -5.10967113383E+01  1.00017295696E+02  6.00000000000E+01  0.0000E+00  9.0
</event>
<event>
10    1   3.4312288E-02   4.8160000E+02  -1.0000000E+00   9.3910000E-02
       11   -1    0    0    0    0  0.00000000000E+00  0.00000000000E+00  2.46763406560E+02  2.46763406560E+02  0.00000000000E+00  0.0000E+00  9.0
      -11   -1    0    0    0    0  0.00000000000E+00  0.00000000000E+00 -2.34995147690E+02  2.34995147690E+02  0.00000000000E+00  0.0000E+00  9.0
  3000025    2    1    2    0    0  6.57847837201E+01  1.60619287161E+02  5.35983131114E+01  2.42009531158E+02  1.59905099436E+02  1.0717E-12  9.0
 -3000025    2    1    2    0    0 -6.57847837201E+01 -1.60619287161E+02 -4.18300542404E+01  2.39749023083E+02  1.60011397888E+02  3.0487E-12  9.0
        2    1    3    3  500    0  4.10386064994E+01  3.59602752756E+01  5.85285179193E+01  8.00180982037E+01  3.00000000000E-03  0.0000E+00  9.0
       -1    1    3    3    0  500  3.58300730302E+01  4.83759564827E+01 -1.93867214485E+01  6.32445435787E+01  5.00000000000E-03  0.0000E+00  9.0
  3000022    1    3    3    0    0 -1.10838958094E+01  7.62830554031E+01  1.44565166413E+01  9.87468893756E+01  6.00000000000E+01  0.0000E+00  9.0
       -2    1    4    4    0  504 -2.43027547537E+01  9.93284034006E+00 -2.39528772736E+01  3.55390706762E+01  3.00000000000E-03  0.0000E+00  9.0
        1    1    4    4  504    0 -4.83189745190E+01 -9.35972513713E+01 -1.45440157036E+01  1.06332954349E+02  5.00000000000E-03  0.0000E+00  9.0
  3000022    1    4    4    0    0  6.83694555248E+00 -7.69548761306E+01 -3.33316126300E+00  9.78769980576E+01  6.00000000000E+01  0.0000E+00  9.0
</event>
<event>
10    1   3.4312288E-02   4.9850000E+02  -1.0000000E+00   9.3520000E-02
       11   -1    0    0    0    0  0.00000000000E+00  0.00000000000E+00  2.49999928870E+02  2.49999928870E+02  0.00000000000E+00  0.0000E+00  9.0
      -11   -1    0    0    0    0  0.00000000000E+00  0.00000000000E+00 -2.48490976600E+02  2.48490976600E+02  0.00000000000E+00  0.0000E+00  9.0
  3000025    2    1    2    0    0 -1.88863535963E+02  2.62486525216E+01 -1.19618581154E+01  2.49151419150E+02  1.59921595287E+02  4.7337E-13  9.0
 -3000025    2    1    2    0    0  1.88863535963E+02 -2.62486525216E+01  1.34708103894E+01  2.49339486319E+02  1.60094627422E+02  2.0812E-12  9.0
        2    1    3    3  500    0  1.22431651755E+00  3.21402481737E+01  4.47085779203E+00  3.24728052684E+01  3.00000000000E-03  0.0000E+00  9.0
       -1    1    3    3    0  500 -8.58503255573E+01  2.12496752968E+01 -2.81833470907E+01  9.28231015251E+01  5.00000000000E-03  0.0000E+00  9.0
  3000022    1    3    3    0    0 -1.04237526924E+02 -2.71412709490E+01  1.17506311832E+01  1.23855512356E+02  6.00000000000E+01  0.0000E+00  9.0
       -2    1    4    4    0  504  1.12636749761E+01 -6.27581840237E+00  2.90535628225E+01  3.17862516234E+01  3.00000000000E-03  0.0000E+00  9.0
        1    1    4    4  504    0  6.21935464232E+01  1.12033774380E+01 -4.86720848117E+01  7.97654357954E+01  5.00000000000E-03  0.0000E+00  9.0
  3000022    1    4    4    0    0  1.15406314564E+02 -3.11762115577E+01  3.30893323795E+01  1.37787798900E+02  6.00000000000E+01  0.0000E+00  9.0
</event>
<event>
10    1   3.4312288E-02   5.0000000E+02  -1.0000000E+00   9.3490000E-02
       11   -1    0    0    0    0  0.00000000000E+00  0.00000000000E+00  2.50000000000E+02  2.50000000000E+02  0.00000000000E+00  0.0000E+00  9.0
      -11   -1    0    0    0    0  0.00000000000E+00  0.00000000000E+00 -2.50000000000E+02  2.50000000000E+02  0.00000000000E+00  0.0000E+00  9.0
  3000025    2    1    2    0    0  1.59977551601E+02 -9.84921216287E+01 -4.01330567445E+01  2.49959339876E+02  1.59923401379E+02  3.9527E-13  9.0
 -3000025    2    1    2    0    0 -1.59977551601E+02  9.84921216287E+01  4.01330567445E+01  2.50040660123E+02  1.60050474638E+02  6.9403E-14  9.0
        2    1    3    3  500    0 -6.13768239125E+00 -2.96707300047E+00 -2.85572580307E+01  2.93596945243E+01  3.00000000000E-03  0.0000E+00  9.0
       -1    1    3    3    0  500  4.63425504444E+01 -4.58649408296E+01  3.00456893091E+01  7.17911432563E+01  5.00000000000E-03  0.0000E+00  9.0
  3000022    1    3    3    0    0  1.19772683546E+02 -4.96601077983E+01 -4.16214880228E+01  1.48808502095E+02  6.00000000000E+01  0.0000E+00  9.0
       -4    1    4    4    0  504 -1.79571569843E+01  4.17633092414E+01  3.57349183412E+01  5.78426607497E+01  1.46817165330E+00  0.0000E+00  9.0
        3    1    4    4  504    0  1.51503860647E+00 -1.89414366274E+01  2.68113808305E+00  1.91911923785E+01  2.00000000000E-01  0.0000E+00  9.0
  3000022    1    4    4    0    0 -1.43535433223E+02  7.56702490147E+01  1.71700032115E+00  1.73006806995E+02  6.00000000000E+01  0.0000E+00  9.0
</event>
<event>
10    1   3.4312288E-02   4.8490000E+02  -1.0000000E+00   9.3830000E-02
       11   -1    0    0    0    0  0.00000000000E+00  0.00000000000E+00  2.49949983190E+02  2.49949983190E+02  0.00000000000E+00  0.0000E+00  9.0
      -11   -1    0    0    0    0  0.00000000000E+00  0.00000000000E+00 -2.35206148310E+02  2.35206148310E+02  0.00000000000E+00  0.0000E+00  9.0
  3000025    2    1    2    0    0  1.21918458250E+02  1.34394788685E+02 -1.08001557522E+01  2.41974503400E+02  1.59715206677E+02  1.2203E-12  9.0
 -3000025    2    1    2    0    0 -1.21918458250E+02 -1.34394788685E+02  2.55439906382E+01  2.43181628103E+02  1.59871007695E+02  5.6149E-12  9.0
       14    1    3    3    0    0  9.02175404349E+01  5.84564524705E+01 -1.02136958993E+01  1.07984633266E+02  0.00000000000E+00  0.0000E+00  9.0
      -13    1    3    3    0    0 -5.76295060151E+00  3.03723055629E+01 -3.17013873709E+01  4.42795401803E+01  1.05700000000E-01  0.0000E+00  9.0
  3000022    1    3    3    0    0  3.74638684162E+01  4.55660306515E+01  3.11149275184E+01  8.97103299543E+01  6.00000000000E+01  0.0000E+00  9.0
       -4    1    4    4    0  500 -8.96850435914E+00  4.14919358781E+00  3.88844977683E+01  4.01473482632E+01  1.46817165330E+00  0.0000E+00  9.0
        3    1    4    4  500    0 -5.14144736601E+01 -3.57789933937E+01 -2.73240678895E+01  6.83390748843E+01  2.00000000000E-01  0.0000E+00  9.0
  3000022    1    4    4    0    0 -6.15354802312E+01 -1.02764988879E+02  1.39835607588E+01  1.34695204956E+02  6.00000000000E+01  0.0000E+00  9.0
</event>
<event>
10    1   3.4312288E-02   4.9950000E+02  -1.0000000E+00   9.3500000E-02
       11   -1    0    0    0    0  0.00000000000E+00  0.00000000000E+00  2.49484077380E+02  2.49484077380E+02  0.00000000000E+00  0.0000E+00  9.0
      -11   -1    0    0    0    0  0.00000000000E+00  0.00000000000E+00 -2.50000000000E+02  2.50000000000E+02  0.00000000000E+00  0.0000E+00  9.0
  3000025    2    1    2    0    0 -9.21815816213E+01  1.59160708403E+02  5.62300740895E+01  2.50199316862E+02  1.60025941136E+02  2.3864E-12  9.0
 -3000025    2    1    2    0    0  9.21815816213E+01 -1.59160708403E+02 -5.67459967085E+01  2.49284760522E+02  1.58408360248E+02  9.7252E-13  9.0
        4    1    3    3  500    0 -2.46386668784E+01  2.45148982477E+01 -2.61193089354E+01  4.35019306343E+01  1.46817165330E+00  0.0000E+00  9.0
       -3    1    3    3    0  500 -3.53441313266E+01  1.12504770642E+02  4.88039004785E+01  1.27625983790E+02  2.00000000000E-01  0.0000E+00  9.0
  3000022    1    3    3    0    0 -3.21987834163E+01  2.21410395134E+01  3.35454825465E+01  7.90714024379E+01  6.00000000000E+01  0.0000E+00  9.0
       -2    1    4    4    0  504  3.44480627835E+01 -5.79206761813E+01 -7.50298365076E+01  1.00851128572E+02  3.00000000000E-03  0.0000E+00  9.0
        1    1    4    4  504    0  4.43089601459E+00 -5.27523338448E+01  1.30386925914E+01  5.45201714511E+01  5.00000000000E-03  0.0000E+00  9.0
  3000022    1    4    4    0    0  5.33026228233E+01 -4.84876983765E+01  5.24514720666E+00  9.39134604990E+01  6.00000000000E+01  0.0000E+00  9.0
</event>
<event>
10    1   3.4312288E-02   4.3410000E+02  -1.0000000E+00   9.5080000E-02
       11   -1    0    0    0    0  0.00000000000E+00  0.00000000000E+00  2.50000000000E+02  2.50000000000E+02  0.00000000000E+00  0.0000E+00  9.0
      -11   -1    0    0    0    0  0.00000000000E+00  0.00000000000E+00 -1.88450229390E+02  1.88450229390E+02  0.00000000000E+00  0.0000E+00  9.0
  3000025    2    1    2    0    0  1.16701113213E+02  8.45454859953E+01  5.66279803319E+01  2.22535796775E+02  1.59838554995E+02  1.8088E-12  9.0
 -3000025    2    1    2    0    0 -1.16701113213E+02 -8.45454859953E+01  4.92179027786E+00  2.15914432618E+02  1.60710077985E+02  7.6308E-13  9.0
        2    1    3    3  500    0  4.56897063698E+01 -4.35913363545E+00 -3.06188340246E+01  5.51730397951E+01  3.00000000000E-03  0.0000E+00  9.0
       -1    1    3    3    0  500 -3.41900341574E+00  2.73584072394E+01  2.74120826109E+01  3.88792274756E+01  5.00000000000E-03  0.0000E+00  9.0
  3000022    1    3    3    0    0  7.44304102584E+01  6.15462123912E+01  5.98347317446E+01  1.28483529504E+02  6.00000000000E+01  0.0000E+00  9.0
       -4    1    4    4    0  504 -3.49627934923E+01 -1.28193485019E+01  2.28706961663E+01  4.37259293318E+01  1.46817165330E+00  0.0000E+00  9.0
        3    1    4    4  504    0  2.07079506734E+01 -5.56963252952E+00 -2.87290260871E+01  3.58502017780E+01  2.00000000000E-01  0.0000E+00  9.0
  3000022    1    4    4    0    0 -1.02446270394E+02 -6.61565049641E+01  1.07801201991E+01  1.36338301508E+02  6.00000000000E+01  0.0000E+00  9.0
</event>
<event>
10    1   3.4312288E-02   4.9960000E+02  -1.0000000E+00   9.3500000E-02
       11   -1    0    0    0    0  0.00000000000E+00  0.00000000000E+00  2.50000000000E+02  2.50000000000E+02  0.00000000000E+00  0.0000E+00  9.0
      -11   -1    0    0    0    0  0.00000000000E+00  0.00000000000E+00 -2.49584842880E+02  2.49584842880E+02  0.00000000000E+00  0.0000E+00  9.0
  3000025    2    1    2    0    0 -3.99699955499E+01  1.74972875259E+02  6.80799335290E+01  2.49934116262E+02  1.60059606090E+02  2.7261E-14  9.0
 -3000025    2    1    2    0    0  3.99699955499E+01 -1.74972875259E+02 -6.76647764090E+01  2.49650726619E+02  1.59793165418E+02  1.2238E-12  9.0
        4    1    3    3  500    0 -4.12280299548E+01  9.73513309263E+01  8.64255957295E+01  1.36559771574E+02  1.46817165330E+00  0.0000E+00  9.0
       -3    1    3    3    0  500 -1.16754723793E+01  2.60303182202E+01 -1.69433167317E+01  3.31814722970E+01  2.00000000000E-01  0.0000E+00  9.0
  3000022    1    3    3    0    0  1.29335067850E+01  5.15912261123E+01 -1.40234546877E+00  8.01928723911E+01  6.00000000000E+01  0.0000E+00  9.0
       -2    1    4    4    0  504 -2.20282657921E+00 -7.03692648131E+01  4.66520762759E+00  7.05581323909E+01  3.00000000000E-03  0.0000E+00  9.0
        1    1    4    4  504    0 -1.48645201854E+01 -8.14497927717E+00 -4.63507481834E+01  4.93526750027E+01  5.00000000000E-03  0.0000E+00  9.0
  3000022    1    4    4    0    0  5.70373423135E+01 -9.64586311687E+01 -2.59792358535E+01  1.29739919226E+02  6.00000000000E+01  0.0000E+00  9.0
</event>
<event>
10    1   3.4312288E-02   4.9660000E+02  -1.0000000E+00   9.3570000E-02
       11   -1    0    0    0    0  0.00000000000E+00  0.00000000000E+00  2.50000000000E+02  2.50000000000E+02  0.00000000000E+00  0.0000E+00  9.0
      -11   -1    0    0    0    0  0.00000000000E+00  0.00000000000E+00 -2.46579839280E+02  2.46579839280E+02  0.00000000000E+00  0.0000E+00  9.0
  3000025    2    1    2    0    0 -5.65219387513E+01 -1.30992233156E+02 -1.23482454592E+02  2.47460638555E+02  1.60109825852E+02  4.1406E-14  9.0
 -3000025    2    1    2    0    0  5.65219387513E+01  1.30992233156E+02  1.26902615322E+02  2.49119200727E+02  1.60007523848E+02  6.3453E-13  9.0
        2    1    3    3  500    0 -6.14179852806E+00 -7.09659621071E+01 -9.84873952366E+01  1.21546931251E+02  3.00000000000E-03  0.0000E+00  9.0
       -1    1    3    3    0  500 -7.20161142228E-01  1.34820830394E+01  5.47215657192E+00  1.45681061810E+01  5.00000000000E-03  0.0000E+00  9.0
  3000022    1    3    3    0    0 -4.96599790810E+01 -7.35083540887E+01 -3.04672159269E+01  1.11345601123E+02  6.00000000000E+01  0.0000E+00  9.0
       -4    1    4    4    0  504 -1.08729259809E+01 -1.28267239793E+01  2.03781013259E-01  1.68802376207E+01  1.46817165330E+00  0.0000E+00  9.0
        3    1    4    4  504    0  1.72955786532E+01  7.62698190681E+01  9.72879289308E+01  1.24824690896E+02  2.00000000000E-01  0.0000E+00  9.0
  3000022    1    4    4    0    0  5.00992860786E+01  6.75491380672E+01  2.94109053762E+01  1.07414272209E+02  6.00000000000E+01  0.0000E+00  9.0
</event>
<event>
10    1   3.4312288E-02   4.8030000E+02  -1.0000000E+00   9.3940000E-02
       11   -1    0    0    0    0  0.00000000000E+00  0.00000000000E+00  2.45837288910E+02  2.45837288910E+02  0.00000000000E+00  0.0000E+00  9.0
      -11   -1    0    0    0    0  0.00000000000E+00  0.00000000000E+00 -2.34584590590E+02  2.34584590590E+02  0.00000000000E+00  0.0000E+00  9.0
  3000025    2    1    2    0    0  1.07813193953E+02  1.32898669703E+02 -4.89312702430E+01  2.38642590139E+02  1.58966271333E+02  1.6125E-12  9.0
 -3000025    2    1    2    0    0 -1.07813193953E+02 -1.32898669703E+02  6.01839685570E+01  2.41779289356E+02  1.59841713864E+02  1.3094E-12  9.0
        2    1    3    3  500    0  7.62536472885E+00  1.37494056618E+01 -4.63572381408E+01  4.89508516815E+01  3.00000000000E-03  0.0000E+00  9.0
       -1    1    3    3    0  500  8.20561671081E+01  4.98775096073E+01 -5.95473263316E+00  9.62103912830E+01  5.00000000000E-03  0.0000E+00  9.0
  3000022    1    3    3    0    0  1.81316621163E+01  6.92717544340E+01  3.38070053096E+00  9.34813471745E+01  6.00000000000E+01  0.0000E+00  9.0
       -4    1    4    4    0  504 -3.58080280525E+01 -9.71215140799E+01  5.89121866852E+01  1.19111731740E+02  1.46817165330E+00  0.0000E+00  9.0
        3    1    4    4  504    0 -6.21489663701E+00  1.52907600038E+01  1.05698267514E+01  1.96008550644E+01  2.00000000000E-01  0.0000E+00  9.0
  3000022    1    4    4    0    0 -6.57902692642E+01 -5.10679156273E+01 -9.29804487885E+00  1.03066702552E+02  6.00000000000E+01  0.0000E+00  9.0
</event>
<event>
10    1   3.4312288E-02   4.9910000E+02  -1.0000000E+00   9.3510000E-02
       11   -1    0    0    0    0  0.00000000000E+00  0.00000000000E+00  2.49067321310E+02  2.49067321310E+02  0.00000000000E+00  0.0000E+00  9.0
      -11   -1    0    0    0    0  0.00000000000E+00  0.00000000000E+00 -2.49999999980E+02  2.49999999980E+02  0.00000000000E+00  0.0000E+00  9.0
  3000025    2    1    2    0    0 -8.42854916789E+01  1.63680264181E+02 -5.29639027527E+01  2.49633454344E+02  1.60051284104E+02  2.9703E-13  9.0
 -3000025    2    1    2    0    0  8.42854916789E+01 -1.63680264181E+02  5.20312240817E+01  2.49433866945E+02  1.60046033096E+02  1.8335E-12  9.0
        4    1    3    3  500    0 -8.10585100738E+01  4.81160973019E+01 -1.98507768048E+01  9.63423569501E+01  1.46817165330E+00  0.0000E+00  9.0
       -3    1    3    3    0  500 -7.08510670277E+00  7.37610550410E+01 -3.14378775153E+00  7.41674819525E+01  2.00000000000E-01  0.0000E+00  9.0
  3000022    1    3    3    0    0  3.85812509791E+00  4.18031118367E+01 -2.99693381961E+01  7.91236154407E+01  6.00000000000E+01  0.0000E+00  9.0
      -14    1    4    4    0    0 -1.05599268764E+01 -5.89091691751E+01  1.85197670221E+01  6.26480968513E+01  0.00000000000E+00  0.0000E+00  9.0
       13    1    4    4    0    0  5.36301333990E+01 -9.45139249121E+01  7.96133772192E+00  1.08960852059E+02  1.05700000000E-01  0.0000E+00  9.0
  3000022    1    4    4    0    0  4.12152851570E+01 -1.02571700939E+01  2.55501193378E+01  7.78249180346E+01  6.00000000000E+01  0.0000E+00  9.0
</event>
<event>
10    1   3.4312288E-02   4.3420000E+02  -1.0000000E+00   9.5080000E-02
       11   -1    0    0    0    0  0.00000000000E+00  0.00000000000E+00  1.88493988190E+02  1.88493988190E+02  0.00000000000E+00  0.0000E+00  9.0
      -11   -1    0    0    0    0  0.00000000000E+00  0.00000000000E+00 -2.49999999950E+02  2.49999999950E+02  0.00000000000E+00  0.0000E+00  9.0
  3000025    2    1    2    0    0 -1.42710245930E+02 -1.91760550034E+01 -5.79474140951E+01  2.23236015022E+02  1.60444632892E+02  3.6914E-12  9.0
 -3000025    2    1    2    0    0  1.42710245930E+02  1.91760550034E+01 -3.55859766397E+00  2.15257973121E+02  1.59966859055E+02  6.8298E-13  9.0
        2    1    3    3  500    0 -1.18626734716E+01 -3.46192180837E+01 -7.38806927629E+00  3.73335888880E+01  3.00000000000E-03  0.0000E+00  9.0
       -1    1    3    3    0  500 -3.67590833010E+01  4.34903228760E+01  6.77704038385E+00  5.73460259334E+01  5.00000000000E-03  0.0000E+00  9.0
  3000022    1    3    3    0    0 -9.40884891571E+01 -2.80471597957E+01 -5.73363852029E+01  1.28556400201E+02  6.00000000000E+01  0.0000E+00  9.0
       -2    1    4    4    0  504  7.79460973585E+01  2.78450944595E+01 -6.86158999924E+00  8.30543485027E+01  3.00000000000E-03  0.0000E+00  9.0
        1    1    4    4  504    0 -1.78743654666E+01  1.68799713374E+01  1.03997008586E+01  2.66941974244E+01  5.00000000000E-03  0.0000E+00  9.0
  3000022    1    4    4    0    0  8.26385140382E+01 -2.55490107936E+01 -7.09670852345E+00  1.05509427194E+02  6.00000000000E+01  0.0000E+00  9.0
</event>
<event>
10    1   3.4312288E-02   4.8700000E+02  -1.0000000E+00   9.3780000E-02
       11   -1    0    0    0    0  0.00000000000E+00  0.00000000000E+00  2.43217622190E+02  2.43217622190E+02  0.00000000000E+00  0.0000E+00  9.0
      -11   -1    0    0    0    0  0.00000000000E+00  0.00000000000E+00 -2.43735839540E+02  2.43735839540E+02  0.00000000000E+00  0.0000E+00  9.0
  3000025    2    1    2    0    0  4.75842106664E+01 -1.75923639574E+02 -2.28651463820E+01  2.43446475045E+02  1.59781060289E+02  6.8935E-14  9.0
 -3000025    2    1    2    0    0 -4.75842106664E+01  1.75923639574E+02  2.23469290330E+01  2.43506986674E+02  1.59946501232E+02  8.7927E-14  9.0
        4    1    3    3  500    0  3.86512107046E+01 -5.15055013209E+01  1.03941619025E+01  6.52451292045E+01  1.46817165330E+00  0.0000E+00  9.0
       -3    1    3    3    0  500 -7.07806737894E+00 -8.17279527039E+01 -5.61887832516E+01  9.94322716943E+01  2.00000000000E-01  0.0000E+00  9.0
  3000022    1    3    3    0    0  1.60110673413E+01 -4.26901855502E+01  2.29294749670E+01  7.87690741471E+01  6.00000000000E+01  0.0000E+00  9.0
      -14    1    4    4    0    0  3.48183329230E+01  2.95243913173E+01  6.36648473315E+00  4.60927122011E+01  0.00000000000E+00  0.0000E+00  9.0
       13    1    4    4    0    0 -3.47978761262E+01  1.50295563067E+01 -1.74305553096E+01  4.17206804422E+01  1.05700000000E-01  0.0000E+00  9.0
  3000022    1    4    4    0    0 -4.76046674632E+01  1.31369691950E+02  3.34109996098E+01  1.55693594031E+02  6.00000000000E+01  0.0000E+00  9.0
</event>
<event>
10    1   3.4312288E-02   4.7230000E+02  -1.0000000E+00   9.4130000E-02
       11   -1    0    0    0    0  0.00000000000E+00  0.00000000000E+00  2.50000000000E+02  2.50000000000E+02  0.00000000000E+00  0.0000E+00  9.0
      -11   -1    0    0    0    0  0.00000000000E+00  0.00000000000E+00 -2.23036831430E+02  2.23036831430E+02  0.00000000000E+00  0.0000E+00  9.0
  3000025    2    1    2    0    0 -6.65518055462E+00 -1.73457608119E+02  2.10161131483E+00  2.35822892111E+02  1.59612613633E+02  9.0192E-14  9.0
 -3000025    2    1    2    0    0  6.65518055462E+00  1.73457608119E+02  2.48615572570E+01  2.37213939321E+02  1.59751440483E+02  2.2815E-13  9.0
       14    1    3    3    0    0  1.34363452004E+01  1.37892188671E+01 -2.29247081145E+01  2.99369365741E+01  0.00000000000E+00  0.0000E+00  9.0
      -13    1    3    3    0    0  5.03769613469E+00 -7.06587394468E+01  9.80501634984E+00  7.15135327101E+01  1.05700000000E-01  0.0000E+00  9.0
  3000022    1    3    3    0    0 -2.51292218899E+01 -1.16588087539E+02  1.52213030797E+01  1.34372422827E+02  6.00000000000E+01  0.0000E+00  9.0
       -2    1    4    4    0  500 -5.20315263086E+01  7.16601096950E+01  2.02802370326E+01  9.08500912195E+01  3.00000000000E-03  0.0000E+00  9.0
        1    1    4    4  500    0  2.25870395286E+01 -5.18132504690E-02 -1.31431216237E+00  2.26253062021E+01  5.00000000000E-03  0.0000E+00  9.0
  3000022    1    4    4    0    0  3.60996673346E+01  1.01849311674E+02  5.89563238660E+00  1.23738541899E+02  6.00000000000E+01  0.0000E+00  9.0
</event>
<event>
10    1   3.4312288E-02   4.9990000E+02  -1.0000000E+00   9.3490000E-02
       11   -1    0    0    0    0  0.00000000000E+00  0.00000000000E+00  2.49918661600E+02  2.49918661600E+02  0.00000000000E+00  0.0000E+00  9.0
      -11   -1    0    0    0    0  0.00000000000E+00  0.00000000000E+00 -2.49975050810E+02  2.49975050810E+02  0.00000000000E+00  0.0000E+00  9.0
  3000025    2    1    2    0    0 -2.60772503218E+01 -1.90079277443E+02  6.46047558730E-01  2.50028496445E+02  1.60323663129E+02  1.5639E-12  9.0
 -3000025    2    1    2    0    0  2.60772503218E+01  1.90079277443E+02 -7.02436775570E-01  2.49865215966E+02  1.60068666624E+02  2.4030E-12  9.0
        4    1    3    3  500    0 -2.67824072280E+01 -1.36923305912E+02  5.27229065158E+00  1.39625361649E+02  1.46817165330E+00  0.0000E+00  9.0
       -3    1    3    3    0  500  1.52151704554E+01 -1.56832769902E+01 -2.70638170476E+01  3.47844330459E+01  2.00000000000E-01  0.0000E+00  9.0
  3000022    1    3    3    0    0 -1.45100135501E+01 -3.74726945410E+01  2.24375739549E+01  7.56187017501E+01  6.00000000000E+01  0.0000E+00  9.0
       -4    1    4    4    0  504 -3.22631993767E+01  5.15771697334E+01 -3.83027833746E-01  6.08557368705E+01  1.46817165330E+00  0.0000E+00  9.0
        3    1    4    4  504    0  4.15149760202E+01  9.79706456063E+01 -2.74319528804E+01  1.09883086384E+02  2.00000000000E-01  0.0000E+00  9.0
  3000022    1    4    4    0    0  1.68254736788E+01  4.05314621034E+01  2.71125439381E+01  7.91263927116E+01  6.00000000000E+01  0.0000E+00  9.0
</event>
<event>
10    1   3.4312288E-02   5.0000000E+02  -1.0000000E+00   9.3490000E-02
       11   -1    0    0    0    0  0.00000000000E+00  0.00000000000E+00  2.49999999980E+02  2.49999999980E+02  0.00000000000E+00  0.0000E+00  9.0
      -11   -1    0    0    0    0  0.00000000000E+00  0.00000000000E+00 -2.49999999990E+02  2.49999999990E+02  0.00000000000E+00  0.0000E+00  9.0
  3000025    2    1    2    0    0  1.35322945256E+02  1.13595600399E+02  7.53092376989E+01  2.49970765609E+02  1.59992632435E+02  2.9586E-12  9.0
 -3000025    2    1    2    0    0 -1.35322945256E+02 -1.13595600399E+02 -7.53092377149E+01  2.50029234354E+02  1.60083967978E+02  1.4202E-12  9.0
        2    1    3    3  500    0  8.20533489709E+01  6.76299063042E+01 -8.22081623728E+00  1.06649604466E+02  3.00000000000E-03  0.0000E+00  9.0
       -1    1    3    3    0  500 -9.41099704267E+00  2.48585753327E+01  2.54230441236E+01  3.67810661947E+01  5.00000000000E-03  0.0000E+00  9.0
  3000022    1    3    3    0    0  6.26805933275E+01  2.11071187624E+01  5.81070098127E+01  1.06540094949E+02  6.00000000000E+01  0.0000E+00  9.0
       -2    1    4    4    0  504  1.87286672373E+00 -5.24541558793E+00  2.71086259549E+01  2.76748915918E+01  3.00000000000E-03  0.0000E+00  9.0
        1    1    4    4  504    0 -4.03146870280E+01 -2.40363803179E+01 -5.62702460224E+01  7.32759318015E+01  5.00000000000E-03  0.0000E+00  9.0
  3000022    1    4    4    0    0 -9.68811249517E+01 -8.43138044933E+01 -4.61476176479E+01  1.49078410961E+02  6.00000000000E+01  0.0000E+00  9.0
</event>
<event>
10    1   3.4312288E-02   4.9040000E+02  -1.0000000E+00   9.3710000E-02
       11   -1    0    0    0    0  0.00000000000E+00  0.00000000000E+00  2.50000000000E+02  2.50000000000E+02  0.00000000000E+00  0.0000E+00  9.0
      -11   -1    0    0    0    0  0.00000000000E+00  0.00000000000E+00 -2.40481810850E+02  2.40481810850E+02  0.00000000000E+00  0.0000E+00  9.0
  3000025    2    1    2    0    0  1.53996376096E+02  5.91045485089E+01  9.02120528223E+01  2.46865891729E+02  1.59988507462E+02  1.6585E-13  9.0
 -3000025    2    1    2    0    0 -1.53996376096E+02 -5.91045485089E+01 -8.06938636743E+01  2.43615919122E+02  1.60090552219E+02  2.3633E-13  9.0
        4    1    3    3  500    0  8.52353304777E+01  8.44641840854E+01  2.74916385975E+01  1.23114603828E+02  1.46817165330E+00  0.0000E+00  9.0
       -3    1    3    3    0  500  2.14149396699E+01 -1.93384056949E+01  9.33302660849E+00  3.03268686408E+01  2.00000000000E-01  0.0000E+00  9.0
  3000022    1    3    3    0    0  4.73461059481E+01 -6.02122988163E+00  5.33873876163E+01  9.34244192609E+01  6.00000000000E+01  0.0000E+00  9.0
       -4    1    4    4    0  504 -2.35265082869E+01 -2.17246286065E+01 -6.95436805373E+01  7.65763351887E+01  1.46817165330E+00  0.0000E+00  9.0
        3    1    4    4  504    0 -8.39080362463E+01 -9.26189283520E+00 -1.59525715741E+01  8.59119650888E+01  2.00000000000E-01  0.0000E+00  9.0
  3000022    1    4    4    0    0 -4.65618315627E+01 -2.81180270673E+01  4.80238843698E+00  8.11276188442E+01  6.00000000000E+01  0.0000E+00  9.0
</event>
<event>
10    1   3.4312288E-02   4.5520000E+02  -1.0000000E+00   9.4540000E-02
       11   -1    0    0    0    0  0.00000000000E+00  0.00000000000E+00  2.16462703580E+02  2.16462703580E+02  0.00000000000E+00  0.0000E+00  9.0
      -11   -1    0    0    0    0  0.00000000000E+00  0.00000000000E+00 -2.39311450400E+02  2.39311450400E+02  0.00000000000E+00  0.0000E+00  9.0
  3000025    2    1    2    0    0  1.55415598277E+02  3.12900862640E+01  2.14166994712E+01  2.26242101208E+02  1.59980422729E+02  4.6752E-13  9.0
 -3000025    2    1    2    0    0 -1.55415598277E+02 -3.12900862640E+01 -4.42654462922E+01  2.29532052767E+02  1.59976422718E+02  2.1369E-12  9.0
        4    1    3    3  500    0  7.73045394671E+00 -7.25100391467E+00 -3.37871386718E+01  3.54409825432E+01  1.46817165330E+00  0.0000E+00  9.0
       -3    1    3    3    0  500  9.16537310860E+01  2.46798882989E+01  8.39735176125E+00  9.52893426624E+01  2.00000000000E-01  0.0000E+00  9.0
  3000022    1    3    3    0    0  5.60314132445E+01  1.38612018799E+01  4.68064863817E+01  9.55117760024E+01  6.00000000000E+01  0.0000E+00  9.0
       -4    1    4    4    0  504 -1.78982513800E+01  3.04103746043E+01 -2.26516749743E+01  4.19570279355E+01  1.46817165330E+00  0.0000E+00  9.0
        3    1    4    4  504    0 -4.54877267130E+01 -5.02121328390E+01 -3.50823991228E+01  7.62968301699E+01  2.00000000000E-01  0.0000E+00  9.0
  3000022    1    4    4    0    0 -9.20296201844E+01 -1.14883280290E+01  1.34686278049E+01  1.11278194662E+02  6.00000000000E+01  0.0000E+00  9.0
</event>
<event>
10    1   3.4312288E-02   4.9340000E+02  -1.0000000E+00   9.3640000E-02
       11   -1    0    0    0    0  0.00000000000E+00  0.00000000000E+00  2.43453607960E+02  2.43453607960E+02  0.00000000000E+00  0.0000E+00  9.0
      -11   -1    0    0    0    0  0.00000000000E+00  0.00000000000E+00 -2.50000000000E+02  2.50000000000E+02  0.00000000000E+00  0.0000E+00  9.0
  3000025    2    1    2    0    0 -1.06048344846E+02  1.50401030420E+02  3.29231997020E+01  2.46114523075E+02  1.60067798116E+02  6.0451E-13  9.0
 -3000025    2    1    2    0    0  1.06048344846E+02 -1.50401030420E+02 -3.94695917410E+01  2.47339084881E+02  1.60474461650E+02  2.3291E-12  9.0
        2    1    3    3  500    0 -6.59777050586E+01  4.86469096989E+01 -2.17745668895E+01  8.48157483035E+01  3.00000000000E-03  0.0000E+00  9.0
       -1    1    3    3    0  500  6.92894794714E-01 -8.07044918552E+00  2.51272693475E+01  2.64006049763E+01  5.00000000000E-03  0.0000E+00  9.0
  3000022    1    3    3    0    0 -4.07635345810E+01  1.09824569907E+02  2.95704972430E+01  1.34898169795E+02  6.00000000000E+01  0.0000E+00  9.0
       -2    1    4    4    0  504  8.96418180792E+00  1.60885650667E+01 -1.27185858113E+01  2.23821561836E+01  3.00000000000E-03  0.0000E+00  9.0
        1    1    4    4  504    0  6.73065215582E+01 -7.92491611463E+01  1.92407145857E+01  1.05739313925E+02  5.00000000000E-03  0.0000E+00  9.0
  3000022    1    4    4    0    0  2.97776414802E+01 -8.72404343407E+01 -4.59917205154E+01  1.19217614772E+02  6.00000000000E+01  0.0000E+00  9.0
</event>
<event>
10    1   3.4312288E-02   4.5620000E+02  -1.0000000E+00   9.4510000E-02
       11   -1    0    0    0    0  0.00000000000E+00  0.00000000000E+00  2.10636806520E+02  2.10636806520E+02  0.00000000000E+00  0.0000E+00  9.0
      -11   -1    0    0    0    0  0.00000000000E+00  0.00000000000E+00 -2.47055724970E+02  2.47055724970E+02  0.00000000000E+00  0.0000E+00  9.0
  3000025    2    1    2    0    0 -9.38256227099E+01  8.64274166838E+01 -1.19489342810E+02  2.37026043163E+02  1.60095897078E+02  3.1483E-12  9.0
 -3000025    2    1    2    0    0  9.38256227099E+01 -8.64274166838E+01  8.30704243596E+01  2.20666488323E+02  1.59749985396E+02  3.4319E-12  9.0
        2    1    3    3  500    0 -2.88491302065E+01  1.52107400347E+00 -4.45220388579E+01  5.30735144198E+01  3.00000000000E-03  0.0000E+00  9.0
       -1    1    3    3    0  500 -3.75398528265E+01  7.14225303302E+00  2.12687419843E+01  4.37334167339E+01  5.00000000000E-03  0.0000E+00  9.0
  3000022    1    3    3    0    0 -2.74366396764E+01  7.77640896471E+01 -9.62360459347E+01  1.40219112009E+02  6.00000000000E+01  0.0000E+00  9.0
       -4    1    4    4    0  504  8.43069872774E+01 -4.23622426187E+01  6.40603811967E+01  1.14053126527E+02  1.46817165330E+00  0.0000E+00  9.0
        3    1    4    4  504    0 -1.66374383591E+01  3.09457790357E+00  1.96553253820E+01  2.59374744998E+01  2.00000000000E-01  0.0000E+00  9.0
  3000022    1    4    4    0    0  2.61560737915E+01 -4.71597519681E+01 -6.45282219312E-01  8.06758872962E+01  6.00000000000E+01  0.0000E+00  9.0
</event>
<event>
10    1   3.4312288E-02   4.9580000E+02  -1.0000000E+00   9.3580000E-02
       11   -1    0    0    0    0  0.00000000000E+00  0.00000000000E+00  2.49205430630E+02  2.49205430630E+02  0.00000000000E+00  0.0000E+00  9.0
      -11   -1    0    0    0    0  0.00000000000E+00  0.00000000000E+00 -2.46628778640E+02  2.46628778640E+02  0.00000000000E+00  0.0000E+00  9.0
  3000025    2    1    2    0    0 -1.81430266322E+02 -3.29836295957E+01  4.44021722772E+01  2.48092098594E+02  1.59916462951E+02  1.0440E-12  9.0
 -3000025    2    1    2    0    0  1.81430266322E+02  3.29836295957E+01 -4.18255202872E+01  2.47742110670E+02  1.60068478760E+02  2.2739E-12  9.0
        4    1    3    3  500    0 -6.03592590765E+01  6.20432743317E+00 -2.11508773148E+01  6.42747926823E+01  1.46817165330E+00  0.0000E+00  9.0
       -3    1    3    3    0  500 -5.52309000765E+01 -5.86385733414E+01  3.07216552831E+01  8.62136573294E+01  2.00000000000E-01  0.0000E+00  9.0
  3000022    1    3    3    0    0 -6.58401071690E+01  1.94506163126E+01  3.48313943099E+01  9.76036485821E+01  6.00000000000E+01  0.0000E+00  9.0
      -14    1    4    4    0    0  2.97760350306E+01  3.00498528811E+01  2.33016307752E+01  4.82967071041E+01  0.00000000000E+00  0.0000E+00  9.0
       13    1    4    4    0    0  4.41369508248E+01 -3.85193915758E+01 -2.13664348241E+01  6.23566328874E+01  1.05700000000E-01  0.0000E+00  9.0
  3000022    1    4    4    0    0  1.07517280466E+02  4.14531682903E+01 -4.37607162383E+01  1.37088770678E+02  6.00000000000E+01  0.0000E+00  9.0
</event>
<event>
10    1   3.4312288E-02   4.9930000E+02  -1.0000000E+00   9.3510000E-02
       11   -1    0    0    0    0  0.00000000000E+00  0.00000000000E+00  2.49999888030E+02  2.49999888030E+02  0.00000000000E+00  0.0000E+00  9.0
      -11   -1    0    0    0    0  0.00000000000E+00  0.00000000000E+00 -2.49251165110E+02  2.49251165110E+02  0.00000000000E+00  0.0000E+00  9.0
  3000025    2    1    2    0    0 -8.19827329474E+01  1.18938903029E+02 -1.25477150389E+02  2.49416236958E+02  1.59988477188E+02  5.6963E-13  9.0
 -3000025    2    1    2    0    0  8.19827329474E+01 -1.18938903029E+02  1.26225873309E+02  2.49834816186E+02  1.60052594889E+02  2.6674E-12  9.0
        2    1    3    3  500    0 -1.43603879487E+01  5.62104311159E+01 -5.35987639137E+01  7.89851936147E+01  3.00000000000E-03  0.0000E+00  9.0
       -1    1    3    3    0  500 -4.88470897932E+01 -1.56121530344E+01 -4.00297865460E+01  6.50550639040E+01  5.00000000000E-03  0.0000E+00  9.0
  3000022    1    3    3    0    0 -1.87752552057E+01  7.83406249478E+01 -3.18485999288E+01  1.05375979439E+02  6.00000000000E+01  0.0000E+00  9.0
       -4    1    4    4    0  504  5.08010894741E+01 -2.56195645298E+01  6.73918500424E+01  8.82095786102E+01  1.46817165330E+00  0.0000E+00  9.0
        3    1    4    4  504    0  2.41930368941E+01 -8.19386676940E+01  1.65672082720E+01  8.70273559725E+01  2.00000000000E-01  0.0000E+00  9.0
  3000022    1    4    4    0    0  6.98860657928E+00 -1.13806708055E+01  4.22668149946E+01  7.45978816033E+01  6.00000000000E+01  0.0000E+00  9.0
</event>
<event>
10    1   3.4312288E-02   4.8910000E+02  -1.0000000E+00   9.3730000E-02
       11   -1    0    0    0    0  0.00000000000E+00  0.00000000000E+00  2.44907966990E+02  2.44907966990E+02  0.00000000000E+00  0.0000E+00  9.0
      -11   -1    0    0    0    0  0.00000000000E+00  0.00000000000E+00 -2.44220332160E+02  2.44220332160E+02  0.00000000000E+00  0.0000E+00  9.0
  3000025    2    1    2    0    0 -1.38838089793E+02 -1.01372909734E+02  6.82987847488E+01  2.44699863886E+02  1.60189941577E+02  7.2981E-14  9.0
 -3000025    2    1    2    0    0  1.38838089793E+02  1.01372909734E+02 -6.76111499168E+01  2.44428435269E+02  1.60067205791E+02  1.2683E-12  9.0
        4    1    3    3  500    0 -6.47079476757E+01  1.07188208286E+01  1.09356044510E+01  6.65113117076E+01  1.46817165330E+00  0.0000E+00  9.0
       -3    1    3    3    0  500 -3.64479875991E+01 -6.21772593700E+01 -3.70210407704E+00  7.21679496549E+01  2.00000000000E-01  0.0000E+00  9.0
  3000022    1    3    3    0    0 -3.76821545172E+01 -4.99144711931E+01  6.10652843753E+01  1.06020602523E+02  6.00000000000E+01  0.0000E+00  9.0
       -2    1    4    4    0  504  3.88650462896E+01 -1.83240082976E+01 -2.75663399904E+01  5.10506044298E+01  3.00000000000E-03  0.0000E+00  9.0
        1    1    4    4  504    0 -4.75782653919E+00  4.86946199561E+01 -1.45170209248E+01  5.10347611690E+01  5.00000000000E-03  0.0000E+00  9.0
  3000022    1    4    4    0    0  1.04730870042E+02  7.10022980759E+01 -2.55277890015E+01  1.42343069670E+02  6.00000000000E+01  0.0000E+00  9.0
</event>
<event>
10    1   3.4312288E-02   4.5440000E+02  -1.0000000E+00   9.4560000E-02
       11   -1    0    0    0    0  0.00000000000E+00  0.00000000000E+00  2.06886674240E+02  2.06886674240E+02  0.00000000000E+00  0.0000E+00  9.0
      -11   -1    0    0    0    0  0.00000000000E+00  0.00000000000E+00 -2.49456281630E+02  2.49456281630E+02  0.00000000000E+00  0.0000E+00  9.0
  3000025    2    1    2    0    0 -7.36942102907E+01 -1.24309178115E+02 -9.33326693677E+01  2.34861394794E+02  1.59891460683E+02  2.4551E-12  9.0
 -3000025    2    1    2    0    0  7.36942102907E+01  1.24309178115E+02  5.07630619847E+01  2.21481561072E+02  1.59979951990E+02  3.3864E-14  9.0
        2    1    3    3  500    0 -2.69139625171E+01 -3.01770860450E+01  1.19016372655E+01  4.21505264397E+01  3.00000000000E-03  0.0000E+00  9.0
       -1    1    3    3    0  500  2.59478147851E+01 -1.19061647278E+01  1.03196624674E+00  2.85676535611E+01  5.00000000000E-03  0.0000E+00  9.0
  3000022    1    3    3    0    0 -7.27280625587E+01 -8.22259273418E+01 -1.06266272880E+02  1.64143214793E+02  6.00000000000E+01  0.0000E+00  9.0
       -2    1    4    4    0  504  7.23410592574E+01  2.09672114176E+01  4.59874600671E+01  8.82479421944E+01  3.00000000000E-03  0.0000E+00  9.0
        1    1    4    4  504    0 -1.91202656937E+01  1.44569903147E+01  8.21939862958E-01  2.39846771772E+01  5.00000000000E-03  0.0000E+00  9.0
  3000022    1    4    4    0    0  2.04734167269E+01  8.88849763823E+01  3.95366205436E+00  1.09248941700E+02  6.00000000000E+01  0.0000E+00  9.0
</event>
<event>
10    1   3.4312288E-02   5.0000000E+02  -1.0000000E+00   9.3490000E-02
       11   -1    0    0    0    0  0.00000000000E+00  0.00000000000E+00  2.49999550310E+02  2.49999550310E+02  0.00000000000E+00  0.0000E+00  9.0
      -11   -1    0    0    0    0  0.00000000000E+00  0.00000000000E+00 -2.49993233340E+02  2.49993233340E+02  0.00000000000E+00  0.0000E+00  9.0
  3000025    2    1    2    0    0 -2.36638980293E+01  1.88044049095E+02  3.17382631632E+01  2.49942220539E+02  1.59822563455E+02  9.9397E-14  9.0
 -3000025    2    1    2    0    0  2.36638980293E+01 -1.88044049095E+02 -3.17319461932E+01  2.50050563120E+02  1.59993197472E+02  1.6113E-12  9.0
        2    1    3    3  500    0 -4.40021828156E+01  5.57168418952E+01  1.29173932721E+01  7.21624391304E+01  3.00000000000E-03  0.0000E+00  9.0
       -1    1    3    3    0  500  2.23225886004E+01  1.08418047988E+01 -2.51335982648E+01  3.53205390652E+01  5.00000000000E-03  0.0000E+00  9.0
  3000022    1    3    3    0    0 -1.98430381420E+00  1.21485402402E+02  4.39544681556E+01  1.42459242344E+02  6.00000000000E+01  0.0000E+00  9.0
      -14    1    4    4    0    0 -9.02232570880E+00 -7.13299626917E+00 -3.83633383484E-02  1.15014550696E+01  0.00000000000E+00  0.0000E+00  9.0
       13    1    4    4    0    0  1.76878003449E+01 -7.20463807694E+01  4.96249719645E+01  8.92535056902E+01  1.05700000000E-01  0.0000E+00  9.0
  3000022    1    4    4    0    0  1.49984233930E+01 -1.08864672056E+02 -8.13185548192E+01  1.49295602360E+02  6.00000000000E+01  0.0000E+00  9.0
</event>
<event>
10    1   3.4312288E-02   4.9930000E+02  -1.0000000E+00   9.3510000E-02
       11   -1    0    0    0    0  0.00000000000E+00  0.00000000000E+00  2.49265556820E+02  2.49265556820E+02  0.00000000000E+00  0.0000E+00  9.0
      -11   -1    0    0    0    0  0.00000000000E+00  0.00000000000E+00 -2.49985243360E+02  2.49985243360E+02  0.00000000000E+00  0.0000E+00  9.0
  3000025    2    1    2    0    0  9.23929769777E+01 -1.25025879181E+02  1.12197908698E+02  2.49738013072E+02  1.60039906889E+02  3.2779E-13  9.0
 -3000025    2    1    2    0    0 -9.23929769777E+01  1.25025879181E+02 -1.12917595228E+02  2.49512787101E+02  1.59180133669E+02  3.2884E-13  9.0
        2    1    3    3  500    0 -8.96060216590E+00  9.83633352084E+00  2.73922389741E+01  3.04529245447E+01  3.00000000000E-03  0.0000E+00  9.0
       -1    1    3    3    0  500  7.32020901542E+01 -4.40187634588E+01  1.44288489437E+01  8.66278779967E+01  5.00000000000E-03  0.0000E+00  9.0
  3000022    1    3    3    0    0  2.81514889892E+01 -9.08434492418E+01  7.03768207798E+01  1.32657210530E+02  6.00000000000E+01  0.0000E+00  9.0
       -2    1    4    4    0  504 -2.53454341830E+01  3.32141623421E+01 -8.42458871953E+01  9.40369136687E+01  3.00000000000E-03  0.0000E+00  9.0
        1    1    4    4  504    0 -3.60456215975E+00 -4.36006231597E+00  1.68939457329E+01  1.78159602376E+01  5.00000000000E-03  0.0000E+00  9.0
  3000022    1    4    4    0    0 -6.34429806344E+01  9.61717791546E+01 -4.55656537658E+01  1.37659913194E+02  6.00000000000E+01  0.0000E+00  9.0
</event>
<event>
10    1   3.4312288E-02   4.9870000E+02  -1.0000000E+00   9.3520000E-02
       11   -1    0    0    0    0  0.00000000000E+00  0.00000000000E+00  2.49778417360E+02  2.49778417360E+02  0.00000000000E+00  0.0000E+00  9.0
      -11   -1    0    0    0    0  0.00000000000E+00  0.00000000000E+00 -2.48931048100E+02  2.48931048100E+02  0.00000000000E+00  0.0000E+00  9.0
  3000025    2    1    2    0    0 -1.76487224862E+01  1.89318296782E+02 -1.96765772044E+01  2.49238504357E+02  1.59936767072E+02  3.6210E-13  9.0
 -3000025    2    1    2    0    0  1.76487224862E+01 -1.89318296782E+02  2.05239464634E+01  2.49470961102E+02  1.60192487816E+02  6.2063E-13  9.0
        2    1    3    3  500    0  2.21880416215E+01  3.12029980398E+01  2.37132071223E+01  4.50361241527E+01  3.00000000000E-03  0.0000E+00  9.0
       -1    1    3    3    0  500 -1.71164348374E+00  1.15411470825E+02 -3.61768973442E+01  1.20960759124E+02  5.00000000000E-03  0.0000E+00  9.0
  3000022    1    3    3    0    0 -3.81251206234E+01  4.27038279166E+01 -7.21288698331E+00  8.32416210793E+01  6.00000000000E+01  0.0000E+00  9.0
       -4    1    4    4    0  504  1.34185596830E+01 -3.73682567162E+01  2.97635700900E+01  4.96434284319E+01  1.46817165330E+00  0.0000E+00  9.0
        3    1    4    4  504    0  6.45637948224E+00 -3.71511019484E+01 -5.12557817787E+01  6.36324160923E+01  2.00000000000E-01  0.0000E+00  9.0
  3000022    1    4    4    0    0 -2.22621667916E+00 -1.14798938118E+02  4.20161581521E+01  1.36195116577E+02  6.00000000000E+01  0.0000E+00  9.0
</event>
<event>
10    1   3.4312288E-02   4.9490000E+02  -1.0000000E+00   9.3600000E-02
       11   -1    0    0    0    0  0.00000000000E+00  0.00000000000E+00  2.44945210360E+02  2.44945210360E+02  0.00000000000E+00  0.0000E+00  9.0
      -11   -1    0    0    0    0  0.00000000000E+00  0.00000000000E+00 -2.49999999680E+02  2.49999999680E+02  0.00000000000E+00  0.0000E+00  9.0
  3000025    2    1    2    0    0  1.46008980921E+02 -1.01803309605E+02  5.91949264785E+01  2.46686930067E+02  1.60211940220E+02  7.2624E-13  9.0
 -3000025    2    1    2    0    0 -1.46008980921E+02  1.01803309605E+02 -6.42497158015E+01  2.48258279964E+02  1.60691042793E+02  7.0276E-16  9.0
        4    1    3    3  500    0  5.88934333252E+01 -2.26339009228E+01 -3.13104663778E+00  6.31877277710E+01  1.46817165330E+00  0.0000E+00  9.0
       -3    1    3    3    0  500 -7.95245356110E+00 -5.72978549115E+01  2.52816720489E+01  6.31307265655E+01  2.00000000000E-01  0.0000E+00  9.0
  3000022    1    3    3    0    0  9.50680011565E+01 -2.18715537719E+01  3.70443010671E+01  1.20368475731E+02  6.00000000000E+01  0.0000E+00  9.0
       -4    1    4    4    0  504 -4.50710477110E+00 -1.54265561636E+01  1.36817857915E+01  2.11574908469E+01  1.46817165330E+00  0.0000E+00  9.0
        3    1    4    4  504    0 -2.59882940720E+01  6.94250580614E+01 -3.47068762829E+01  8.18525343341E+01  2.00000000000E-01  0.0000E+00  9.0
  3000022    1    4    4    0    0 -1.15513582078E+02  4.78048077083E+01 -4.32246253100E+01  1.45248254783E+02  6.00000000000E+01  0.0000E+00  9.0
</event>
<event>
10    1   3.4312288E-02   4.9590000E+02  -1.0000000E+00   9.3580000E-02
       11   -1    0    0    0    0  0.00000000000E+00  0.00000000000E+00  2.45893201510E+02  2.45893201510E+02  0.00000000000E+00  0.0000E+00  9.0
      -11   -1    0    0    0    0  0.00000000000E+00  0.00000000000E+00 -2.49999891950E+02  2.49999891950E+02  0.00000000000E+00  0.0000E+00  9.0
  3000025    2    1    2    0    0  5.47831780930E+01 -1.44348819917E+01  1.78542863758E+02  2.46362855292E+02  1.60023560292E+02  1.7334E-13  9.0
 -3000025    2    1    2    0    0 -5.47831780930E+01  1.44348819917E+01 -1.82649554208E+02  2.49530238164E+02  1.60296343332E+02  6.6527E-13  9.0
       14    1    3    3    0    0 -1.60597853513E+01  2.52478184611E+00  6.28705656704E+01  6.49384266564E+01  0.00000000000E+00  0.0000E+00  9.0
      -13    1    3    3    0    0  5.84856727888E+01  1.94834467139E+01  2.60784387777E+01  6.69348545900E+01  1.05700000000E-01  0.0000E+00  9.0
  3000022    1    3    3    0    0  1.23572906555E+01 -3.64431105517E+01  8.95938593113E+01  1.14489574046E+02  6.00000000000E+01  0.0000E+00  9.0
       -2    1    4    4    0  500 -6.34143451425E+01 -2.03891456127E+01 -4.94408866556E+01  8.29547931766E+01  3.00000000000E-03  0.0000E+00  9.0
        1    1    4    4  500    0  2.48519270004E+01 -5.98976219764E+00 -3.09872833859E+01  4.01709756348E+01  5.00000000000E-03  0.0000E+00  9.0
  3000022    1    4    4    0    0 -1.62207599508E+01  4.08137898021E+01 -1.02221384167E+02  1.26404469353E+02  6.00000000000E+01  0.0000E+00  9.0
</event>
<event>
10    1   3.4312288E-02   4.9910000E+02  -1.0000000E+00   9.3510000E-02
       11   -1    0    0    0    0  0.00000000000E+00  0.00000000000E+00  2.49999999510E+02  2.49999999510E+02  0.00000000000E+00  0.0000E+00  9.0
      -11   -1    0    0    0    0  0.00000000000E+00  0.00000000000E+00 -2.49090168930E+02  2.49090168930E+02  0.00000000000E+00  0.0000E+00  9.0
  3000025    2    1    2    0    0  1.80990244112E+02  5.63811392256E+01  2.77180701810E+01  2.49605432740E+02  1.59994622768E+02  3.1588E-12  9.0
 -3000025    2    1    2    0    0 -1.80990244112E+02 -5.63811392256E+01 -2.68082396020E+01  2.49484735702E+02  1.59961402575E+02  2.6221E-13  9.0
        2    1    3    3  500    0  1.21714473846E+02  2.79051208897E+01  2.64126952969E+01  1.27635180877E+02  3.00000000000E-03  0.0000E+00  9.0
       -1    1    3    3    0  500 -3.73128797655E+00  9.47374248892E+00  2.73500834212E+01  2.91839235686E+01  5.00000000000E-03  0.0000E+00  9.0
  3000022    1    3    3    0    0  6.30070582425E+01  1.90022758469E+01 -2.60447085371E+01  9.27863282953E+01  6.00000000000E+01  0.0000E+00  9.0
       -2    1    4    4    0  504 -4.02562171658E+01  1.42232741247E+01  1.25210092129E+01  4.44931481021E+01  3.00000000000E-03  0.0000E+00  9.0
        1    1    4    4  504    0 -1.80298917099E+01 -5.86810905399E+01  3.10681013000E+00  6.14670617177E+01  5.00000000000E-03  0.0000E+00  9.0
  3000022    1    4    4    0    0 -1.22704135237E+02 -1.19233228104E+01 -4.24360589449E+01  1.43524525882E+02  6.00000000000E+01  0.0000E+00  9.0
</event>
<event>
10    1   3.4312288E-02   5.0000000E+02  -1.0000000E+00   9.3490000E-02
       11   -1    0    0    0    0  0.00000000000E+00  0.00000000000E+00  2.50000000000E+02  2.50000000000E+02  0.00000000000E+00  0.0000E+00  9.0
      -11   -1    0    0    0    0  0.00000000000E+00  0.00000000000E+00 -2.49999950230E+02  2.49999950230E+02  0.00000000000E+00  0.0000E+00  9.0
  3000025    2    1    2    0    0 -5.95220760820E+01  1.53057910152E+02  9.93363410728E+01  2.49861016289E+02  1.59978802977E+02  1.0366E-12  9.0
 -3000025    2    1    2    0    0  5.95220760820E+01 -1.53057910152E+02 -9.93362913008E+01  2.50138933938E+02  1.60412549699E+02  6.1094E-14  9.0
        2    1    3    3  500    0 -4.38971722732E+00  6.75582206839E+01  1.47345810819E+01  6.92855734476E+01  3.00000000000E-03  0.0000E+00  9.0
       -1    1    3    3    0  500 -5.47870263096E+01  4.65316024917E+01  8.19140536078E+01  1.08980367433E+02  5.00000000000E-03  0.0000E+00  9.0
  3000022    1    3    3    0    0 -3.45332545048E-01  3.89680869760E+01  2.68770638303E+00  7.15950754084E+01  6.00000000000E+01  0.0000E+00  9.0
       -2    1    4    4    0  504  3.00397402976E+01 -6.31868124049E+01  5.22482175178E+00  7.01588057935E+01  3.00000000000E-03  0.0000E+00  9.0
        1    1    4    4  504    0  4.04013066649E+01 -4.95390704150E+01 -8.09494615328E+01  1.03146499821E+02  5.00000000000E-03  0.0000E+00  9.0
  3000022    1    4    4    0    0 -1.09189708816E+01 -4.03320273315E+01 -2.36116515197E+01  7.68336283230E+01  6.00000000000E+01  0.0000E+00  9.0
</event>
<event>
10    1   3.4312288E-02   4.9350000E+02  -1.0000000E+00   9.3640000E-02
       11   -1    0    0    0    0  0.00000000000E+00  0.00000000000E+00  2.49683285400E+02  2.49683285400E+02  0.00000000000E+00  0.0000E+00  9.0
      -11   -1    0    0    0    0  0.00000000000E+00  0.00000000000E+00 -2.43813780110E+02  2.43813780110E+02  0.00000000000E+00  0.0000E+00  9.0
  3000025    2    1    2    0    0  7.35187429473E+01 -1.36551598970E+02  1.08405118551E+02  2.48272771850E+02  1.60736911654E+02  7.3721E-14  9.0
 -3000025    2    1    2    0    0 -7.35187429473E+01  1.36551598970E+02 -1.02535613261E+02  2.45224293667E+02  1.59906402223E+02  5.3858E-13  9.0
        4    1    3    3  500    0  2.13809136445E+01 -7.18738706785E+01  5.91706042528E+01  9.55317365603E+01  1.46817165330E+00  0.0000E+00  9.0
       -3    1    3    3    0  500 -1.89689589109E+01 -9.06884865620E+00 -1.58321092955E+01  2.63203552950E+01  2.00000000000E-01  0.0000E+00  9.0
  3000022    1    3    3    0    0  7.11067882139E+01 -5.56088796352E+01  6.50666235934E+01  1.26420679994E+02  6.00000000000E+01  0.0000E+00  9.0
       -2    1    4    4    0  504 -3.41634698798E+01  7.83726082913E+01 -3.54393598044E+00  8.55684982680E+01  3.00000000000E-03  0.0000E+00  9.0
        1    1    4    4  504    0  7.85109852065E+00 -1.43046210291E+01 -1.86805188403E+00  1.64241156112E+01  5.00000000000E-03  0.0000E+00  9.0
  3000022    1    4    4    0    0 -4.72063715880E+01  7.24836117077E+01 -9.71236253963E+01  1.43231679788E+02  6.00000000000E+01  0.0000E+00  9.0
</event>
<event>
10    1   3.4312288E-02   4.8100000E+02  -1.0000000E+00   9.3920000E-02
       11   -1    0    0    0    0  0.00000000000E+00  0.00000000000E+00  2.33604857740E+02  2.33604857740E+02  0.00000000000E+00  0.0000E+00  9.0
      -11   -1    0    0    0    0  0.00000000000E+00  0.00000000000E+00 -2.47586282320E+02  2.47586282320E+02  0.00000000000E+00  0.0000E+00  9.0
  3000025    2    1    2    0    0  1.17009808338E+02 -4.55055204032E+01  1.21578507481E+02  2.37036352324E+02  1.60133854032E+02  2.8628E-12  9.0
 -3000025    2    1    2    0    0 -1.17009808338E+02  4.55055204032E+01 -1.35559932051E+02  2.44154787732E+02  1.59602686570E+02  1.7474E-12  9.0
        2    1    3    3  500    0  2.70222968919E+00  4.94807431579E+00  7.23971053766E+01  7.26162954207E+01  3.00000000000E-03  0.0000E+00  9.0
       -1    1    3    3    0  500  3.41261990599E+01 -4.51216190192E+01  1.61544172584E+01  5.88347107340E+01  5.00000000000E-03  0.0000E+00  9.0
  3000022    1    3    3    0    0  8.01813795900E+01 -5.33197569992E+00  3.30269848477E+01  1.05585346171E+02  6.00000000000E+01  0.0000E+00  9.0
       -2    1    4    4    0  504 -4.87537279005E+01 -2.68270029851E+01 -1.35256790254E+01  5.72674259545E+01  3.00000000000E-03  0.0000E+00  9.0
        1    1    4    4  504    0  7.19868456758E+00  1.41573867452E+01 -5.18050826767E+01  5.41850466005E+01  5.00000000000E-03  0.0000E+00  9.0
  3000022    1    4    4    0    0 -7.54547650049E+01  5.81751366427E+01 -7.02291703494E+01  1.32702315177E+02  6.00000000000E+01  0.0000E+00  9.0
</event>
<event>
10    1   3.4312288E-02   5.0000000E+02  -1.0000000E+00   9.3490000E-02
       11   -1    0    0    0    0  0.00000000000E+00  0.00000000000E+00  2.50000000000E+02  2.50000000000E+02  0.00000000000E+00  0.0000E+00  9.0
      -11   -1    0    0    0    0  0.00000000000E+00  0.00000000000E+00 -2.49999999310E+02  2.49999999310E+02  0.00000000000E+00  0.0000E+00  9.0
  3000025    2    1    2    0    0  1.06704472560E+02  6.66702306710E+01  1.45186392757E+02  2.49983326058E+02  1.59943147846E+02  3.3629E-12  9.0
 -3000025    2    1    2    0    0 -1.06704472560E+02 -6.66702306710E+01 -1.45186392057E+02  2.50016673247E+02  1.59995263495E+02  2.1274E-13  9.0
        4    1    3    3  500    0 -3.98385207163E+00 -2.55939651970E+01  2.66090801909E+01  3.71634337548E+01  1.46817165330E+00  0.0000E+00  9.0
       -3    1    3    3    0  500  1.64128794730E+01  5.50782626342E+01  2.63132958782E+01  6.32093914491E+01  2.00000000000E-01  0.0000E+00  9.0
  3000022    1    3    3    0    0  9.42754451574E+01  3.71859332336E+01  9.22640166873E+01  1.49610500853E+02  6.00000000000E+01  0.0000E+00  9.0
       -4    1    4    4    0  504 -2.08336202177E+01 -2.63206033814E+01 -7.20181199581E+01  7.94706173629E+01  1.46817165330E+00  0.0000E+00  9.0
        3    1    4    4  504    0 -8.04772685535E+01 -3.50444400763E+01 -2.00096073992E+01  9.00284839502E+01  2.00000000000E-01  0.0000E+00  9.0
  3000022    1    4    4    0    0 -5.39358378872E+00 -5.30518721307E+00 -5.31586647003E+01  8.05175719341E+01  6.00000000000E+01  0.0000E+00  9.0
</event>
<event>
10    1   3.4312288E-02   4.8620000E+02  -1.0000000E+00   9.3800000E-02
       11   -1    0    0    0    0  0.00000000000E+00  0.00000000000E+00  2.49999993060E+02  2.49999993060E+02  0.00000000000E+00  0.0000E+00  9.0
      -11   -1    0    0    0    0  0.00000000000E+00  0.00000000000E+00 -2.36422574960E+02  2.36422574960E+02  0.00000000000E+00  0.0000E+00  9.0
  3000025    2    1    2    0    0 -1.69786819265E+02  3.80459729260E+01  6.36318068521E+01  2.44784990657E+02  1.59986326778E+02  2.2678E-13  9.0
 -3000025    2    1    2    0    0  1.69786819265E+02 -3.80459729260E+01 -5.00543887531E+01  2.41637577362E+02  1.60025675777E+02  2.4927E-12  9.0
        4    1    3    3  500    0 -2.56320507238E+00 -1.66900432463E+01  2.04445201164E+01  2.65567598664E+01  1.46817165330E+00  0.0000E+00  9.0
       -3    1    3    3    0  500 -7.65293134032E+01  7.04349123395E+01  2.28592523351E+01  1.06491305296E+02  2.00000000000E-01  0.0000E+00  9.0
  3000022    1    3    3    0    0 -9.06943007894E+01 -1.56988961672E+01  2.03280344009E+01  1.11736925495E+02  6.00000000000E+01  0.0000E+00  9.0
      -14    1    4    4    0    0  1.02035306990E+02 -2.35205627340E+01  1.89561254027E+01  1.06413135628E+02  0.00000000000E+00  0.0000E+00  9.0
       13    1    4    4    0    0 -9.24787202412E+00  1.00205201064E+01 -8.49926104077E-01  1.36626317761E+01  1.05700000000E-01  0.0000E+00  9.0
  3000022    1    4    4    0    0  7.69993842984E+01 -2.45459302983E+01 -6.81605880523E+01  1.21561809958E+02  6.00000000000E+01  0.0000E+00  9.0
</event>
<event>
10    1   3.4312288E-02   5.0000000E+02  -1.0000000E+00   9.3490000E-02
       11   -1    0    0    0    0  0.00000000000E+00  0.00000000000E+00  2.49979495060E+02  2.49979495060E+02  0.00000000000E+00  0.0000E+00  9.0
      -11   -1    0    0    0    0  0.00000000000E+00  0.00000000000E+00 -2.49999967860E+02  2.49999967860E+02  0.00000000000E+00  0.0000E+00  9.0
  3000025    2    1    2    0    0 -1.74048149195E+02  4.14674655370E+01 -6.98715923210E+01  2.50036996559E+02  1.60075455015E+02  3.4023E-12  9.0
 -3000025    2    1    2    0    0  1.74048149195E+02 -4.14674655370E+01  6.98511195260E+01  2.49942466370E+02  1.59936702040E+02  7.2903E-14  9.0
        2    1    3    3  500    0 -1.02289494769E+02  1.80930307348E+01 -6.29723125081E+01  1.21474320960E+02  3.00000000000E-03  0.0000E+00  9.0
       -1    1    3    3    0  500 -4.24480937619E+01 -1.05640934306E+01  2.11365082411E+01  4.85818149070E+01  5.00000000000E-03  0.0000E+00  9.0
  3000022    1    3    3    0    0 -2.93105606637E+01  3.39385282321E+01 -2.80357880546E+01  7.99808606907E+01  6.00000000000E+01  0.0000E+00  9.0
       -4    1    4    4    0  504  1.10680271062E+02  1.04155023351E+01  5.72513746615E+01  1.25053910455E+02  1.46817165330E+00  0.0000E+00  9.0
        3    1    4    4  504    0  4.06755070636E+01 -3.74245235483E+01 -8.29364148210E+00  5.58920059287E+01  2.00000000000E-01  0.0000E+00  9.0
  3000022    1    4    4    0    0  2.26923710698E+01 -1.44584443239E+01  2.08933863467E+01  6.89965499867E+01  6.00000000000E+01  0.0000E+00  9.0
</event>
<event>
10    1   3.4312288E-02   4.9380000E+02  -1.0000000E+00   9.3630000E-02
       11   -1    0    0    0    0  0.00000000000E+00  0.00000000000E+00  2.43968606770E+02  2.43968606770E+02  0.00000000000E+00  0.0000E+00  9.0
      -11   -1    0    0    0    0  0.00000000000E+00  0.00000000000E+00 -2.49875236310E+02  2.49875236310E+02  0.00000000000E+00  0.0000E+00  9.0
  3000025    2    1    2    0    0  1.77763214794E+02 -1.11576861660E+00 -6.44042796454E+01  2.47673966381E+02  1.59979614053E+02  2.3035E-12  9.0
 -3000025    2    1    2    0    0 -1.77763214794E+02  1.11576861660E+00  5.84976501084E+01  2.46169876704E+02  1.59926944742E+02  1.5198E-12  9.0
        4    1    3    3  500    0  8.22338468913E+01  1.93689624280E+00  9.40962007140E-01  8.22751364575E+01  1.46817165330E+00  0.0000E+00  9.0
       -3    1    3    3    0  500  4.77752599243E+01 -2.65580462607E+01 -6.53453932346E+01  8.51931082835E+01  2.00000000000E-01  0.0000E+00  9.0
  3000022    1    3    3    0    0  4.77541079787E+01  2.35053814015E+01  1.51583062854E-04  8.02057216394E+01  6.00000000000E+01  0.0000E+00  9.0
       -2    1    4    4    0  504 -8.72130495015E+01  3.67480009828E+01 -5.87586047816E+00  9.48211860554E+01  3.00000000000E-03  0.0000E+00  9.0
        1    1    4    4  504    0 -2.91249443783E-01 -7.48886299118E+00  3.47099019849E+01  3.55097904238E+01  5.00000000000E-03  0.0000E+00  9.0
  3000022    1    4    4    0    0 -9.02589158491E+01 -2.81433693755E+01  2.96636086013E+01  1.15838900225E+02  6.00000000000E+01  0.0000E+00  9.0
</event>
<event>
10    1   3.4312288E-02   4.9980000E+02  -1.0000000E+00   9.3490000E-02
       11   -1    0    0    0    0  0.00000000000E+00  0.00000000000E+00  2.49836471840E+02  2.49836471840E+02  0.00000000000E+00  0.0000E+00  9.0
      -11   -1    0    0    0    0  0.00000000000E+00  0.00000000000E+00 -2.50000000000E+02  2.50000000000E+02  0.00000000000E+00  0.0000E+00  9.0
  3000025    2    1    2    0    0  8.68343019694E+01  7.84888804911E+00  1.71280688342E+02  2.50126965858E+02  1.60076930906E+02  5.7452E-12  9.0
 -3000025    2    1    2    0    0 -8.68343019694E+01 -7.84888804911E+00 -1.71444216502E+02  2.49709505977E+02  1.59247973177E+02  7.7369E-12  9.0
        2    1    3    3  500    0  1.96585598505E+01  3.17612292081E+01  3.79535968629E+01  5.32513866490E+01  3.00000000000E-03  0.0000E+00  9.0
       -1    1    3    3    0  500  7.58096931083E+01 -2.76313089732E+01  9.67447003368E+01  1.25976727506E+02  5.00000000000E-03  0.0000E+00  9.0
  3000022    1    3    3    0    0 -8.63395098840E+00  3.71896781442E+00  3.65823911425E+01  7.08988517042E+01  6.00000000000E+01  0.0000E+00  9.0
       -4    1    4    4    0  504 -4.14986513189E+01  4.99136944515E+01 -6.32252674982E+01  9.06261823830E+01  1.46817165330E+00  0.0000E+00  9.0
        3    1    4    4  504    0  1.33099960519E+01 -1.89757849923E+01 -1.39199982845E+01  2.70378024850E+01  2.00000000000E-01  0.0000E+00  9.0
  3000022    1    4    4    0    0 -5.86456467023E+01 -3.87867975093E+01 -9.42989507184E+01  1.32045521108E+02  6.00000000000E+01  0.0000E+00  9.0
</event>
<event>
10    1   3.4312288E-02   4.8960000E+02  -1.0000000E+00   9.3720000E-02
       11   -1    0    0    0    0  0.00000000000E+00  0.00000000000E+00  2.39718988210E+02  2.39718988210E+02  0.00000000000E+00  0.0000E+00  9.0
      -11   -1    0    0    0    0  0.00000000000E+00  0.00000000000E+00 -2.50000000000E+02  2.50000000000E+02  0.00000000000E+00  0.0000E+00  9.0
  3000025    2    1    2    0    0  1.18595911030E+02 -5.40969729608E+01 -1.36712749052E+02  2.47567246762E+02  1.60024039816E+02  8.2005E-13  9.0
 -3000025    2    1    2    0    0 -1.18595911030E+02  5.40969729608E+01  1.26431737262E+02  2.42151741453E+02  1.60190539998E+02  3.5100E-13  9.0
       14    1    3    3    0    0  4.81296347232E+01  1.55659331429E+01 -6.17218213123E+01  7.98018999730E+01  0.00000000000E+00  0.0000E+00  9.0
      -13    1    3    3    0    0  6.37954438168E+01 -6.23989175870E+01 -4.29978329321E+01  9.90570965512E+01  1.05700000000E-01  0.0000E+00  9.0
  3000022    1    3    3    0    0  6.67083249003E+00 -7.26398851675E+00 -3.19930948080E+01  6.87082502373E+01  6.00000000000E+01  0.0000E+00  9.0
       -2    1    4    4    0  500 -3.63978958261E+00  1.31420613391E+01  5.80878187798E+01  5.96670473883E+01  3.00000000000E-03  0.0000E+00  9.0
        1    1    4    4  500    0 -5.51075970401E+01 -2.09630997886E+01  3.39372243422E+00  5.90577359983E+01  5.00000000000E-03  0.0000E+00  9.0
  3000022    1    4    4    0    0 -5.98485244066E+01  6.19180114099E+01  6.49501960480E+01  1.23426958065E+02  6.00000000000E+01  0.0000E+00  9.0
</event>
<event>
10    1   3.4312288E-02   4.9760000E+02  -1.0000000E+00   9.3540000E-02
       11   -1    0    0    0    0  0.00000000000E+00  0.00000000000E+00  2.49999954750E+02  2.49999954750E+02  0.00000000000E+00  0.0000E+00  9.0
      -11   -1    0    0    0    0  0.00000000000E+00  0.00000000000E+00 -2.47606266300E+02  2.47606266300E+02  0.00000000000E+00  0.0000E+00  9.0
  3000025    2    1    2    0    0  1.45298985720E+02 -4.45204329573E+01 -1.13744376783E+02  2.48259624707E+02  1.60003730606E+02  1.4814E-12  9.0
 -3000025    2    1    2    0    0 -1.45298985720E+02  4.45204329573E+01  1.16138065233E+02  2.49346596330E+02  1.59974406401E+02  2.4276E-12  9.0
        4    1    3    3  500    0 -1.10097091434E+01 -7.10999084218E+00 -1.56552778386E+01  2.04697073112E+01  1.46817165330E+00  0.0000E+00  9.0
       -3    1    3    3    0  500  1.19271603677E+02 -5.60223960697E+01 -7.31637650123E+01  1.50722263836E+02  2.00000000000E-01  0.0000E+00  9.0
  3000022    1    3    3    0    0  3.70370911860E+01  1.86119539539E+01 -2.49253339330E+01  7.70676535595E+01  6.00000000000E+01  0.0000E+00  9.0
       -2    1    4    4    0  504 -2.18011235113E+01  2.70530672881E+01  1.15981885172E+01  3.66288878064E+01  3.00000000000E-03  0.0000E+00  9.0
        1    1    4    4  504    0 -9.60442522831E+01 -1.80529144631E+01  9.65173550455E+01  1.37353580103E+02  5.00000000000E-03  0.0000E+00  9.0
  3000022    1    4    4    0    0 -2.74536099254E+01  3.55202801323E+01  8.02252166995E+00  7.53641284203E+01  6.00000000000E+01  0.0000E+00  9.0
</event>
<event>
10    1   3.4312288E-02   4.8530000E+02  -1.0000000E+00   9.3820000E-02
       11   -1    0    0    0    0  0.00000000000E+00  0.00000000000E+00  2.46954801080E+02  2.46954801080E+02  0.00000000000E+00  0.0000E+00  9.0
      -11   -1    0    0    0    0  0.00000000000E+00  0.00000000000E+00 -2.38429902310E+02  2.38429902310E+02  0.00000000000E+00  0.0000E+00  9.0
  3000025    2    1    2    0    0 -5.41869847302E+01 -1.45178224776E+02  1.00501865615E+02  2.44381809909E+02  1.60027803081E+02  2.3340E-12  9.0
 -3000025    2    1    2    0    0  5.41869847302E+01  1.45178224776E+02 -9.19769668439E+01  2.41002893485E+02  1.60030265810E+02  7.0607E-13  9.0
        4    1    3    3  500    0  1.36034083164E+00 -4.94502618347E+01  3.13047233529E+01  5.85603974962E+01  1.46817165330E+00  0.0000E+00  9.0
       -3    1    3    3    0  500 -1.06276003793E+01  2.47518232618E+01 -2.10975304281E+00  2.70201721405E+01  2.00000000000E-01  0.0000E+00  9.0
  3000022    1    3    3    0    0 -4.49197251828E+01 -1.20479786203E+02  7.13068953036E+01  1.58801240272E+02  6.00000000000E+01  0.0000E+00  9.0
       -2    1    4    4    0  504 -1.47188214454E+01  3.53947698714E+01  1.40957321692E+00  3.83590972866E+01  3.00000000000E-03  0.0000E+00  9.0
        1    1    4    4  504    0  1.13892031227E+01  2.60994822278E+00 -6.24511114125E+01  6.35347709460E+01  5.00000000000E-03  0.0000E+00  9.0
  3000022    1    4    4    0    0  5.75166030521E+01  1.07173506682E+02 -3.09354286482E+01  1.39109025253E+02  6.00000000000E+01  0.0000E+00  9.0
</event>
<event>
10    1   3.4312288E-02   4.7820000E+02  -1.0000000E+00   9.3990000E-02
       11   -1    0    0    0    0  0.00000000000E+00  0.00000000000E+00  2.49558252940E+02  2.49558252940E+02  0.00000000000E+00  0.0000E+00  9.0
      -11   -1    0    0    0    0  0.00000000000E+00  0.00000000000E+00 -2.29069319470E+02  2.29069319470E+02  0.00000000000E+00  0.0000E+00  9.0
  3000025    2    1    2    0    0  1.00282703855E+02  1.46385224046E+02  4.81917340865E+00  2.39064339416E+02  1.60135191125E+02  5.4040E-13  9.0
 -3000025    2    1    2    0    0 -1.00282703855E+02 -1.46385224046E+02  1.56697600617E+01  2.39563232984E+02  1.60186599646E+02  4.2827E-13  9.0
        2    1    3    3  500    0 -1.76981138931E+01  1.66438713138E+01 -2.56416653421E+01  3.53233166365E+01  3.00000000000E-03  0.0000E+00  9.0
       -1    1    3    3    0  500  4.39218586940E+01  1.64085038418E+01  2.99863022060E+01  5.56556108084E+01  5.00000000000E-03  0.0000E+00  9.0
  3000022    1    3    3    0    0  7.40589590541E+01  1.13332848890E+02  4.74536544857E-01  1.48085411971E+02  6.00000000000E+01  0.0000E+00  9.0
       -4    1    4    4    0  504 -5.58297133966E+01 -4.18612467565E+01  3.48046724934E+01  7.79925742192E+01  1.46817165330E+00  0.0000E+00  9.0
        3    1    4    4  504    0 -1.45050189799E+01 -9.05693309737E+01 -1.50830425868E+01  9.29555671399E+01  2.00000000000E-01  0.0000E+00  9.0
  3000022    1    4    4    0    0 -2.99479714784E+01 -1.39546463146E+01 -4.05186984483E+00  6.86150916248E+01  6.00000000000E+01  0.0000E+00  9.0
</event>
<event>
10    1   3.4312288E-02   4.9460000E+02  -1.0000000E+00   9.3610000E-02
       11   -1    0    0    0    0  0.00000000000E+00  0.00000000000E+00  2.44677530490E+02  2.44677530490E+02  0.00000000000E+00  0.0000E+00  9.0
      -11   -1    0    0    0    0  0.00000000000E+00  0.00000000000E+00 -2.49999998660E+02  2.49999998660E+02  0.00000000000E+00  0.0000E+00  9.0
  3000025    2    1    2    0    0  3.80665214913E+01  1.32229278493E+02  1.26330149245E+02  2.45978441714E+02  1.60038885996E+02  9.3139E-13  9.0
 -3000025    2    1    2    0    0 -3.80665214913E+01 -1.32229278493E+02 -1.31652617415E+02  2.48699087441E+02  1.59953687899E+02  9.8863E-14  9.0
        2    1    3    3  500    0 -2.43453765581E+00  2.26804735035E+01 -2.80620972512E+01  3.61636856955E+01  3.00000000000E-03  0.0000E+00  9.0
       -1    1    3    3    0  500  2.56101576898E+01  4.80405183301E+01  5.15321816094E+01  7.49622394592E+01  5.00000000000E-03  0.0000E+00  9.0
  3000022    1    3    3    0    0  1.48909014572E+01  6.15082866594E+01  1.02860064886E+02  1.34852516559E+02  6.00000000000E+01  0.0000E+00  9.0
       -2    1    4    4    0  504 -4.16540894526E+01 -9.85090034308E+01 -7.13605493113E+01  1.28574550095E+02  3.00000000000E-03  0.0000E+00  9.0
        1    1    4    4  504    0 -7.96517313812E-02  8.29721378402E+00 -4.42866802153E+01  4.50572987480E+01  5.00000000000E-03  0.0000E+00  9.0
  3000022    1    4    4    0    0  3.66721969330E+00 -4.20174888449E+01 -1.60053878864E+01  7.50672385965E+01  6.00000000000E+01  0.0000E+00  9.0
</event>
<event>
10    1   3.4312288E-02   4.9640000E+02  -1.0000000E+00   9.3570000E-02
       11   -1    0    0    0    0  0.00000000000E+00  0.00000000000E+00  2.46409747530E+02  2.46409747530E+02  0.00000000000E+00  0.0000E+00  9.0
      -11   -1    0    0    0    0  0.00000000000E+00  0.00000000000E+00 -2.50000000000E+02  2.50000000000E+02  0.00000000000E+00  0.0000E+00  9.0
  3000025    2    1    2    0    0 -1.32146355631E+02 -7.92235811865E+01  1.08919985489E+02  2.47359327226E+02  1.59950112235E+02  5.3676E-13  9.0
 -3000025    2    1    2    0    0  1.32146355631E+02  7.92235811865E+01 -1.12510237959E+02  2.49050420305E+02  1.60089109830E+02  3.9187E-13  9.0
        2    1    3    3  500    0  1.85306757869E+01 -2.73460123948E+01  5.23945014082E+01  6.19384704834E+01  3.00000000000E-03  0.0000E+00  9.0
       -1    1    3    3    0  500 -4.62243666622E+01 -9.84858781094E+00  3.93274518579E+00  4.74252386909E+01  5.00000000000E-03  0.0000E+00  9.0
  3000022    1    3    3    0    0 -1.04452664756E+02 -4.20289809806E+01  5.25927388939E+01  1.37995618051E+02  6.00000000000E+01  0.0000E+00  9.0
      -14    1    4    4    0    0  2.46640946884E+01 -3.26349716498E+01 -2.06637923611E+00  4.09588679596E+01  0.00000000000E+00  0.0000E+00  9.0
       13    1    4    4    0    0  3.66352435381E+01  3.42527202601E+01 -5.66725088322E+01  7.56780968586E+01  1.05700000000E-01  0.0000E+00  9.0
  3000022    1    4    4    0    0  7.08470174048E+01  7.76058325762E+01 -5.37713498907E+01  1.32413455487E+02  6.00000000000E+01  0.0000E+00  9.0
</event>
<event>
10    1   3.4312288E-02   4.9440000E+02  -1.0000000E+00   9.3620000E-02
       11   -1    0    0    0    0  0.00000000000E+00  0.00000000000E+00  2.44757526520E+02  2.44757526520E+02  0.00000000000E+00  0.0000E+00  9.0
      -11   -1    0    0    0    0  0.00000000000E+00  0.00000000000E+00 -2.49637819430E+02  2.49637819430E+02  0.00000000000E+00  0.0000E+00  9.0
  3000025    2    1    2    0    0  1.72653815443E+01  1.74988701821E+02  6.54272371402E+01  2.46611115525E+02  1.60053677796E+02  4.7573E-12  9.0
 -3000025    2    1    2    0    0 -1.72653815443E+01 -1.74988701821E+02 -7.03075300452E+01  2.47784230427E+02  1.59795922672E+02  4.2877E-13  9.0
        4    1    3    3  500    0  7.87473988036E+00  1.43077454281E+02  6.65116285719E+01  1.57984561635E+02  1.46817165330E+00  0.0000E+00  9.0
       -3    1    3    3    0  500  4.83633836893E+00  9.07140400482E+00 -1.91864384643E+01  2.17678653152E+01  2.00000000000E-01  0.0000E+00  9.0
  3000022    1    3    3    0    0  4.55430329503E+00  2.28398435353E+01  1.81020470336E+01  6.68586885754E+01  6.00000000000E+01  0.0000E+00  9.0
      -14    1    4    4    0    0 -3.04503183766E+01 -7.30138488563E+00 -3.64431419436E+00  3.15248019253E+01  0.00000000000E+00  0.0000E+00  9.0
       13    1    4    4    0    0  8.47579090490E+00 -9.41067936650E+01 -7.52807760696E+01  1.20810322670E+02  1.05700000000E-01  0.0000E+00  9.0
  3000022    1    4    4    0    0  4.70914592735E+00 -7.35805232714E+01  8.61756021843E+00  9.54491058333E+01  6.00000000000E+01  0.0000E+00  9.0
</event>
<event>
10    1   3.4312288E-02   5.0000000E+02  -1.0000000E+00   9.3490000E-02
       11   -1    0    0    0    0  0.00000000000E+00  0.00000000000E+00  2.50000000000E+02  2.50000000000E+02  0.00000000000E+00  0.0000E+00  9.0
      -11   -1    0    0    0    0  0.00000000000E+00  0.00000000000E+00 -2.49999956110E+02  2.49999956110E+02  0.00000000000E+00  0.0000E+00  9.0
  3000025    2    1    2    0    0  1.25326729855E+02  6.77279008611E+01  1.28942002448E+02  2.50027676962E+02  1.59981066007E+02  1.5853E-12  9.0
 -3000025    2    1    2    0    0 -1.25326729855E+02 -6.77279008611E+01 -1.28941958558E+02  2.49972279151E+02  1.59894508649E+02  3.9380E-13  9.0
        2    1    3    3  500    0 -1.17754491312E+01  3.05438748421E+01 -1.68989114048E+00  3.27787314227E+01  3.00000000000E-03  0.0000E+00  9.0
       -1    1    3    3    0  500  3.28307356639E+01 -2.45456949371E+00  6.88592267223E+01  7.63248009852E+01  5.00000000000E-03  0.0000E+00  9.0
  3000022    1    3    3    0    0  1.04271443321E+02  3.96385955124E+01  6.17726668649E+01  1.40924144553E+02  6.00000000000E+01  0.0000E+00  9.0
       -4    1    4    4    0  504 -3.54963457092E+00  1.60208144031E+01  1.01374517210E+01  1.93439875704E+01  1.46817165330E+00  0.0000E+00  9.0
        3    1    4    4  504    0 -6.49137692413E+01 -1.87295941573E+01 -9.50442746818E+01  1.16610673972E+02  2.00000000000E-01  0.0000E+00  9.0
  3000022    1    4    4    0    0 -5.68633260424E+01 -6.50191211065E+01 -4.40351355970E+01  1.14017617608E+02  6.00000000000E+01  0.0000E+00  9.0
</event>
<event>
10    1   3.4312288E-02   4.8700000E+02  -1.0000000E+00   9.3780000E-02
       11   -1    0    0    0    0  0.00000000000E+00  0.00000000000E+00  2.50000000000E+02  2.50000000000E+02  0.00000000000E+00  0.0000E+00  9.0
      -11   -1    0    0    0    0  0.00000000000E+00  0.00000000000E+00 -2.37204086960E+02  2.37204086960E+02  0.00000000000E+00  0.0000E+00  9.0
  3000025    2    1    2    0    0 -1.38855983091E+02 -2.51202253384E+01  1.24074267499E+02  2.46608199578E+02  1.59715905539E+02  9.7314E-13  9.0
 -3000025    2    1    2    0    0  1.38855983091E+02  2.51202253384E+01 -1.11278354459E+02  2.40595887383E+02  1.59973432460E+02  2.1854E-12  9.0
        2    1    3    3  500    0 -9.94358446463E+01 -2.73472329215E+01  7.29905462475E+01  1.26344680139E+02  3.00000000000E-03  0.0000E+00  9.0
       -1    1    3    3    0  500 -1.42749372817E+01  3.26064974966E+01  2.64854995804E+01  4.43670962135E+01  5.00000000000E-03  0.0000E+00  9.0
  3000022    1    3    3    0    0 -2.51452011630E+01 -3.03794899135E+01  2.45982216715E+01  7.58964232248E+01  6.00000000000E+01  0.0000E+00  9.0
       -4    1    4    4    0  504  3.65833099742E+00  1.57435643940E+01  2.26514626208E+01  2.78655251589E+01  1.46817165330E+00  0.0000E+00  9.0
        3    1    4    4  504    0  5.25861079594E+01 -2.40270352414E+01 -4.47382087301E+01  7.31036558127E+01  2.00000000000E-01  0.0000E+00  9.0
  3000022    1    4    4    0    0  8.26115441343E+01  3.34036961858E+01 -8.91916083502E+01  1.39626706411E+02  6.00000000000E+01  0.0000E+00  9.0
</event>
<event>
10    1   3.4312288E-02   4.6330000E+02  -1.0000000E+00   9.4340000E-02
       11   -1    0    0    0    0  0.00000000000E+00  0.00000000000E+00  2.49999966090E+02  2.49999966090E+02  0.00000000000E+00  0.0000E+00  9.0
      -11   -1    0    0    0    0  0.00000000000E+00  0.00000000000E+00 -2.14687897870E+02  2.14687897870E+02  0.00000000000E+00  0.0000E+00  9.0
  3000025    2    1    2    0    0 -1.13246729681E+02  9.09494146255E+01 -6.60168543846E+01  2.25947547771E+02  1.59992035666E+02  3.0823E-13  9.0
 -3000025    2    1    2    0    0  1.13246729681E+02 -9.09494146255E+01  1.01328922606E+02  2.38740316185E+02  1.60102374159E+02  3.5456E-13  9.0
        2    1    3    3  500    0 -8.82033698760E+01  3.24293442037E+01  6.93921970287E+00  9.42318927012E+01  3.00000000000E-03  0.0000E+00  9.0
       -1    1    3    3    0  500 -9.61440624262E+00  4.52522625651E+01 -2.89124497398E+01  5.45539535654E+01  5.00000000000E-03  0.0000E+00  9.0
  3000022    1    3    3    0    0 -1.54289535626E+01  1.32678078568E+01 -4.40436243477E+01  7.71617015043E+01  6.00000000000E+01  0.0000E+00  9.0
       -2    1    4    4    0  504 -1.76809888040E+00 -8.56493516008E+00 -7.42236509672E+00  1.14706495272E+01  3.00000000000E-03  0.0000E+00  9.0
        1    1    4    4  504    0  1.67536574199E+01 -1.34206560187E+00 -2.69259571695E+01  3.17410360813E+01  5.00000000000E-03  0.0000E+00  9.0
  3000022    1    4    4    0    0  9.82611711418E+01 -8.10424138634E+01  1.35677244873E+02  1.95528630577E+02  6.00000000000E+01  0.0000E+00  9.0
</event>
<event>
10    1   3.4312288E-02   4.9510000E+02  -1.0000000E+00   9.3600000E-02
       11   -1    0    0    0    0  0.00000000000E+00  0.00000000000E+00  2.50000000000E+02  2.50000000000E+02  0.00000000000E+00  0.0000E+00  9.0
      -11   -1    0    0    0    0  0.00000000000E+00  0.00000000000E+00 -2.45077978200E+02  2.45077978200E+02  0.00000000000E+00  0.0000E+00  9.0
  3000025    2    1    2    0    0 -2.64698331198E+01  5.23926885644E+01 -1.77480171761E+02  2.45355981454E+02  1.58917275293E+02  7.9873E-13  9.0
 -3000025    2    1    2    0    0  2.64698331198E+01 -5.23926885644E+01  1.82402193551E+02  2.49721996747E+02  1.60140156010E+02  8.4961E-13  9.0
        2    1    3    3  500    0 -3.43603091382E+01 -1.80715410977E+01 -1.45362583079E+01  4.14549666061E+01  3.00000000000E-03  0.0000E+00  9.0
       -1    1    3    3    0  500 -1.07231023439E+01  2.99138970666E+01 -1.03831170430E+02  1.08585165375E+02  5.00000000000E-03  0.0000E+00  9.0
  3000022    1    3    3    0    0  1.86135783624E+01  4.05503325965E+01 -5.91127430231E+01  9.53158494736E+01  6.00000000000E+01  0.0000E+00  9.0
       -4    1    4    4    0  504  3.29940020576E+01 -3.51038790558E+01  9.65248561381E+01  1.07889248199E+02  1.46817165330E+00  0.0000E+00  9.0
        3    1    4    4  504    0  7.75803886912E+00 -1.27149005229E+01 -1.64972315291E+01  2.22273370094E+01  2.00000000000E-01  0.0000E+00  9.0
  3000022    1    4    4    0    0 -1.42822078060E+01 -4.57390898612E+00  1.02374568942E+02  1.19605411539E+02  6.00000000000E+01  0.0000E+00  9.0
</event>
<event>
10    1   3.4312288E-02   4.9940000E+02  -1.0000000E+00   9.3500000E-02
       11   -1    0    0    0    0  0.00000000000E+00  0.00000000000E+00  2.49999999970E+02  2.49999999970E+02  0.00000000000E+00  0.0000E+00  9.0
      -11   -1    0    0    0    0  0.00000000000E+00  0.00000000000E+00 -2.49383224720E+02  2.49383224720E+02  0.00000000000E+00  0.0000E+00  9.0
  3000025    2    1    2    0    0  1.37873666391E+02 -1.91160581316E+01  1.32081625138E+02  2.49867147774E+02  1.60042070328E+02  1.0710E-12  9.0
 -3000025    2    1    2    0    0 -1.37873666391E+02  1.91160581316E+01 -1.31464849888E+02  2.49516076928E+02  1.60002169757E+02  2.9716E-12  9.0
        2    1    3    3  500    0  1.30304256662E+00 -2.52271310490E+01  3.64594721965E+01  4.43553737753E+01  3.00000000000E-03  0.0000E+00  9.0
       -1    1    3    3    0  500  9.05902040599E+01 -1.20759792417E+01  1.34311078481E+01  9.23732051479E+01  5.00000000000E-03  0.0000E+00  9.0
  3000022    1    3    3    0    0  4.59804197649E+01  1.81870521596E+01  8.21910450932E+01  1.13138568850E+02  6.00000000000E+01  0.0000E+00  9.0
       -2    1    4    4    0  504 -9.30567204525E+01 -2.00549638305E+01 -6.85013301268E+01  1.17278246209E+02  3.00000000000E-03  0.0000E+00  9.0
        1    1    4    4  504    0  7.49479259860E-01  2.29112877333E+00  1.65099422805E+01  1.66849995302E+01  5.00000000000E-03  0.0000E+00  9.0
  3000022    1    4    4    0    0 -4.55664251989E+01  3.68798931885E+01 -7.94734620416E+01  1.15552831189E+02  6.00000000000E+01  0.0000E+00  9.0
</event>
<event>
10    1   3.4312288E-02   4.9980000E+02  -1.0000000E+00   9.3500000E-02
       11   -1    0    0    0    0  0.00000000000E+00  0.00000000000E+00  2.49835869410E+02  2.49835869410E+02  0.00000000000E+00  0.0000E+00  9.0
      -11   -1    0    0    0    0  0.00000000000E+00  0.00000000000E+00 -2.49951155120E+02  2.49951155120E+02  0.00000000000E+00  0.0000E+00  9.0
  3000025    2    1    2    0    0 -1.86953174981E+02 -4.17969835495E+01 -1.18854435082E+01  2.49904097654E+02  1.60038485333E+02  3.5550E-13  9.0
 -3000025    2    1    2    0    0  1.86953174981E+02  4.17969835495E+01  1.17701578032E+01  2.49882926868E+02  1.60013946443E+02  1.7162E-12  9.0
        4    1    3    3  500    0 -7.83772994305E+01 -1.08722871538E+01 -5.44221792590E+01  9.60475758012E+01  1.46817165330E+00  0.0000E+00  9.0
       -3    1    3    3    0  500 -5.59229664533E+00  8.58462153015E+00  2.50685773284E+01  2.70821542321E+01  2.00000000000E-01  0.0000E+00  9.0
  3000022    1    3    3    0    0 -1.02983578905E+02 -3.95093179258E+01  1.74681584225E+01  1.26774367621E+02  6.00000000000E+01  0.0000E+00  9.0
       -4    1    4    4    0  504  1.13093385466E+02  4.15029126148E+01  4.04289487485E+01  1.27079742747E+02  1.46817165330E+00  0.0000E+00  9.0
        3    1    4    4  504    0  4.49058905994E+01 -7.92109622524E+00 -3.18185964201E+01  5.56034698026E+01  2.00000000000E-01  0.0000E+00  9.0
  3000022    1    4    4    0    0  2.89538989150E+01  8.21516716005E+00  3.15980547467E+00  6.71997143185E+01  6.00000000000E+01  0.0000E+00  9.0
</event>
<event>
10    1   3.4312288E-02   5.0000000E+02  -1.0000000E+00   9.3490000E-02
       11   -1    0    0    0    0  0.00000000000E+00  0.00000000000E+00  2.49977222080E+02  2.49977222080E+02  0.00000000000E+00  0.0000E+00  9.0
      -11   -1    0    0    0    0  0.00000000000E+00  0.00000000000E+00 -2.49997842180E+02  2.49997842180E+02  0.00000000000E+00  0.0000E+00  9.0
  3000025    2    1    2    0    0 -1.15769240008E+02  1.29527915460E+01  1.52763714720E+02  2.49934543048E+02  1.59875675238E+02  1.8567E-12  9.0
 -3000025    2    1    2    0    0  1.15769240008E+02 -1.29527915460E+01 -1.52784334820E+02  2.50040521220E+02  1.60021615866E+02  9.5897E-13  9.0
        2    1    3    3  500    0  9.96790853084E+00 -1.74482698938E+01  2.97926272850E+01  3.59360817607E+01  3.00000000000E-03  0.0000E+00  9.0
       -1    1    3    3    0  500 -7.84947162887E+01 -1.05375887395E+01  9.33669676640E+01  1.22433050838E+02  5.00000000000E-03  0.0000E+00  9.0
  3000022    1    3    3    0    0 -4.72424322505E+01  4.09386501794E+01  2.96041197720E+01  9.15654104503E+01  6.00000000000E+01  0.0000E+00  9.0
       -2    1    4    4    0  504 -5.64298306955E-01 -2.71923547587E+01 -5.29589968038E+00  2.77090085050E+01  3.00000000000E-03  0.0000E+00  9.0
        1    1    4    4  504    0  7.12024843763E+01 -4.64738243981E+00 -1.21065950139E+02  1.40528844914E+02  5.00000000000E-03  0.0000E+00  9.0
  3000022    1    4    4    0    0  4.51310539382E+01  1.88869456525E+01 -2.64224850012E+01  8.18026678006E+01  6.00000000000E+01  0.0000E+00  9.0
</event>
<event>
10    1   3.4312288E-02   4.9670000E+02  -1.0000000E+00   9.3560000E-02
       11   -1    0    0    0    0  0.00000000000E+00  0.00000000000E+00  2.46737334280E+02  2.46737334280E+02  0.00000000000E+00  0.0000E+00  9.0
      -11   -1    0    0    0    0  0.00000000000E+00  0.00000000000E+00 -2.49999999240E+02  2.49999999240E+02  0.00000000000E+00  0.0000E+00  9.0
  3000025    2    1    2    0    0 -1.83232103510E+02 -2.72293542893E+01 -4.39192868043E+01  2.48732634533E+02  1.60073665032E+02  1.7668E-13  9.0
 -3000025    2    1    2    0    0  1.83232103510E+02  2.72293542893E+01  4.06566218443E+01  2.48004698985E+02  1.59805908298E+02  4.1617E-13  9.0
       14    1    3    3    0    0 -2.80014123792E+01 -9.49438821662E+00 -4.63187505380E+01  5.49513344173E+01  0.00000000000E+00  0.0000E+00  9.0
      -13    1    3    3    0    0 -1.06687307750E+02  1.88710679434E+01  1.93084072342E+00  1.08360685484E+02  1.05700000000E-01  0.0000E+00  9.0
  3000022    1    3    3    0    0 -4.85433833808E+01 -3.66060340169E+01  4.68623010326E-01  8.54206146315E+01  6.00000000000E+01  0.0000E+00  9.0
       -4    1    4    4    0  500  2.48450324966E+01  6.20051849744E+00  4.98984472989E+01  5.61046579193E+01  1.46817165330E+00  0.0000E+00  9.0
        3    1    4    4  500    0  4.29800533363E+01 -2.35160007702E+01 -2.22282297856E+01  5.37998278474E+01  2.00000000000E-01  0.0000E+00  9.0
  3000022    1    4    4    0    0  1.15407017677E+02  4.45448365612E+01  1.29864043305E+01  1.38100213217E+02  6.00000000000E+01  0.0000E+00  9.0
</event>
<event>
10    1   3.4312288E-02   5.0000000E+02  -1.0000000E+00   9.3490000E-02
       11   -1    0    0    0    0  0.00000000000E+00  0.00000000000E+00  2.49999994100E+02  2.49999994100E+02  0.00000000000E+00  0.0000E+00  9.0
      -11   -1    0    0    0    0  0.00000000000E+00  0.00000000000E+00 -2.50000000000E+02  2.50000000000E+02  0.00000000000E+00  0.0000E+00  9.0
  3000025    2    1    2    0    0  1.51950448796E+02 -1.03983605268E+02  5.36953061757E+01  2.50256187772E+02  1.60758964163E+02  8.1345E-13  9.0
 -3000025    2    1    2    0    0 -1.51950448796E+02  1.03983605268E+02 -5.36953120767E+01  2.49743806321E+02  1.59960161299E+02  8.2896E-13  9.0
        2    1    3    3  500    0  3.01489109221E+01  1.74174370688E+01  2.19264989579E+01  4.11472393895E+01  3.00000000000E-03  0.0000E+00  9.0
       -1    1    3    3    0  500  1.43983228996E+01 -4.98336768300E+01 -2.28218791432E+01  5.66704970980E+01  5.00000000000E-03  0.0000E+00  9.0
  3000022    1    3    3    0    0  1.07403214974E+02 -7.15673655069E+01  5.45906863610E+01  1.52438451284E+02  6.00000000000E+01  0.0000E+00  9.0
       -2    1    4    4    0  504 -4.93025600073E+01  3.81769009146E+01 -3.72854708766E+01  7.26527668724E+01  3.00000000000E-03  0.0000E+00  9.0
        1    1    4    4  504    0 -4.52417490395E+01  2.08202945215E+01  4.27631790793E+01  6.56428977886E+01  5.00000000000E-03  0.0000E+00  9.0
  3000022    1    4    4    0    0 -5.74061397491E+01  4.49864098320E+01 -5.91730202793E+01  1.11448141660E+02  6.00000000000E+01  0.0000E+00  9.0
</event>
<event>
10    1   3.4312288E-02   4.8980000E+02  -1.0000000E+00   9.3720000E-02
       11   -1    0    0    0    0  0.00000000000E+00  0.00000000000E+00  2.49522967690E+02  2.49522967690E+02  0.00000000000E+00  0.0000E+00  9.0
      -11   -1    0    0    0    0  0.00000000000E+00  0.00000000000E+00 -2.40372081070E+02  2.40372081070E+02  0.00000000000E+00  0.0000E+00  9.0
  3000025    2    1    2    0    0 -1.20169018449E+01 -1.67446909263E+02  8.31488748128E+01  2.46452946278E+02  1.60132588798E+02  6.3714E-13  9.0
 -3000025    2    1    2    0    0  1.20169018449E+01  1.67446909263E+02 -7.39979881958E+01  2.43442102487E+02  1.60017129255E+02  9.7366E-13  9.0
       14    1    3    3    0    0 -1.68044345927E+01  6.29880696517E+00  2.14565763177E+00  1.80739546818E+01  0.00000000000E+00  0.0000E+00  9.0
      -13    1    3    3    0    0  3.62405795183E+01 -9.24419684021E+01  7.10286244736E+01  1.22081832362E+02  1.05700000000E-01  0.0000E+00  9.0
  3000022    1    3    3    0    0 -3.14530467694E+01 -8.13037478254E+01  9.97459270758E+00  1.06297159234E+02  6.00000000000E+01  0.0000E+00  9.0
       -2    1    4    4    0  500  2.16950642230E+01  3.55964531263E+01 -4.76722918489E+01  6.33279614857E+01  3.00000000000E-03  0.0000E+00  9.0
        1    1    4    4  500    0 -4.77053804971E+01  4.13802251016E+01 -8.87853804656E+00  6.37726808334E+01  5.00000000000E-03  0.0000E+00  9.0
  3000022    1    4    4    0    0  3.80272181180E+01  9.04702310343E+01 -1.74471582992E+01  1.16341460168E+02  6.00000000000E+01  0.0000E+00  9.0
</event>
<event>
10    1   3.4312288E-02   4.7060000E+02  -1.0000000E+00   9.4170000E-02
       11   -1    0    0    0    0  0.00000000000E+00  0.00000000000E+00  2.23989548450E+02  2.23989548450E+02  0.00000000000E+00  0.0000E+00  9.0
      -11   -1    0    0    0    0  0.00000000000E+00  0.00000000000E+00 -2.47157281960E+02  2.47157281960E+02  0.00000000000E+00  0.0000E+00  9.0
  3000025    2    1    2    0    0 -7.26676242749E+01  5.71286566892E+01  1.33962247003E+02  2.28552087843E+02  1.60455309050E+02  7.3930E-13  9.0
 -3000025    2    1    2    0    0  7.26676242749E+01 -5.71286566892E+01 -1.57129980513E+02  2.42594742558E+02  1.60056587831E+02  7.4133E-14  9.0
        4    1    3    3  500    0 -4.16418684361E+01 -1.26098585254E+01  1.16241611706E+01  4.50591876292E+01  1.46817165330E+00  0.0000E+00  9.0
       -3    1    3    3    0  500  1.88305332645E+01  3.58215052239E+01  8.44885255615E+00  4.13423793347E+01  2.00000000000E-01  0.0000E+00  9.0
  3000022    1    3    3    0    0 -4.98562891036E+01  3.39170099901E+01  1.13889233277E+02  1.42150520879E+02  6.00000000000E+01  0.0000E+00  9.0
       -2    1    4    4    0  504 -3.50324622317E+00 -3.78103696125E+01 -8.98071489545E+00  3.90198671624E+01  3.00000000000E-03  0.0000E+00  9.0
        1    1    4    4  504    0  7.34694888597E+01 -2.42718603971E+01 -9.99888929395E+01  1.26430485788E+02  5.00000000000E-03  0.0000E+00  9.0
  3000022    1    4    4    0    0  2.70138163832E+00  4.95357332041E+00 -4.81603726784E+01  7.71443896075E+01  6.00000000000E+01  0.0000E+00  9.0
</event>
<event>
10    1   3.4312288E-02   4.8370000E+02  -1.0000000E+00   9.3860000E-02
       11   -1    0    0    0    0  0.00000000000E+00  0.00000000000E+00  2.35841866080E+02  2.35841866080E+02  0.00000000000E+00  0.0000E+00  9.0
      -11   -1    0    0    0    0  0.00000000000E+00  0.00000000000E+00 -2.48024758900E+02  2.48024758900E+02  0.00000000000E+00  0.0000E+00  9.0
  3000025    2    1    2    0    0 -1.33403207185E+02 -2.92664003414E+01  1.13755913178E+02  2.39131403847E+02  1.59970255506E+02  1.4320E-12  9.0
 -3000025    2    1    2    0    0  1.33403207185E+02  2.92664003414E+01 -1.25938805998E+02  2.44735221146E+02  1.59316690076E+02  7.4449E-13  9.0
       14    1    3    3    0    0 -7.88802256883E+01 -3.25383929064E+01  8.38996914756E+01  1.19666182555E+02  0.00000000000E+00  0.0000E+00  9.0
      -13    1    3    3    0    0 -3.63211610358E+01  2.77783541951E+01 -2.35352377528E-01  4.57266909366E+01  1.05700000000E-01  0.0000E+00  9.0
  3000022    1    3    3    0    0 -1.82018204621E+01 -2.45063616301E+01  3.00915740798E+01  7.37385303561E+01  6.00000000000E+01  0.0000E+00  9.0
       -2    1    4    4    0  500  4.29569853459E+01 -2.94484928996E+01 -4.56730682232E+01  6.92715345144E+01  3.00000000000E-03  0.0000E+00  9.0
        1    1    4    4  500    0  1.53056040808E+01  4.29073201445E+01 -6.09945188230E+01  7.61290416970E+01  5.00000000000E-03  0.0000E+00  9.0
  3000022    1    4    4    0    0  7.51406177587E+01  1.58075730960E+01 -1.92712189516E+01  9.93346449343E+01  6.00000000000E+01  0.0000E+00  9.0
</event>
<event>
10    1   3.4312288E-02   4.7370000E+02  -1.0000000E+00   9.4090000E-02
       11   -1    0    0    0    0  0.00000000000E+00  0.00000000000E+00  2.24361883380E+02  2.24361883380E+02  0.00000000000E+00  0.0000E+00  9.0
      -11   -1    0    0    0    0  0.00000000000E+00  0.00000000000E+00 -2.49999999980E+02  2.49999999980E+02  0.00000000000E+00  0.0000E+00  9.0
  3000025    2    1    2    0    0  2.30755187872E+01  1.51420458470E+02 -9.70232545490E+01  2.41803902121E+02  1.59984312816E+02  1.5759E-12  9.0
 -3000025    2    1    2    0    0 -2.30755187872E+01 -1.51420458470E+02  7.13851379510E+01  2.32557981248E+02  1.59770904458E+02  4.3067E-13  9.0
       14    1    3    3    0    0  2.75779282817E+01 -1.66155835042E+01 -1.12284301978E+01  3.40983487606E+01  0.00000000000E+00  0.0000E+00  9.0
      -13    1    3    3    0    0  1.78702898743E+01  4.90301830354E+01 -1.13072917598E+01  5.33963681172E+01  1.05700000000E-01  0.0000E+00  9.0
  3000022    1    3    3    0    0 -2.23726993697E+01  1.19005858939E+02 -7.44875325916E+01  1.54309185243E+02  6.00000000000E+01  0.0000E+00  9.0
       -4    1    4    4    0  500  4.89543881528E+00 -1.42437769545E+02  4.60621214202E+01  1.49787710016E+02  1.46817165330E+00  0.0000E+00  9.0
        3    1    4    4  500    0 -7.84214940011E+00  9.69304610300E+00  6.94933628325E+00  1.42754238027E+01  2.00000000000E-01  0.0000E+00  9.0
  3000022    1    4    4    0    0 -2.01288082029E+01 -1.86757350282E+01  1.83736802476E+01  6.84948474292E+01  6.00000000000E+01  0.0000E+00  9.0
</event>
<event>
10    1   3.4312288E-02   4.9230000E+02  -1.0000000E+00   9.3660000E-02
       11   -1    0    0    0    0  0.00000000000E+00  0.00000000000E+00  2.42391577530E+02  2.42391577530E+02  0.00000000000E+00  0.0000E+00  9.0
      -11   -1    0    0    0    0  0.00000000000E+00  0.00000000000E+00 -2.49955720370E+02  2.49955720370E+02  0.00000000000E+00  0.0000E+00  9.0
  3000025    2    1    2    0    0 -7.48646709089E+00  1.16384672246E+02 -1.49975857459E+02  2.48422732126E+02  1.60061416004E+02  6.9836E-12  9.0
 -3000025    2    1    2    0    0  7.48646709089E+00 -1.16384672246E+02  1.42411714629E+02  2.43924565774E+02  1.60052048413E+02  1.6163E-12  9.0
        2    1    3    3  500    0 -1.12187517127E+01 -1.61995505809E+00 -3.67754008329E+01  3.84826553112E+01  3.00000000000E-03  0.0000E+00  9.0
       -1    1    3    3    0  500  4.11424361966E+01  6.42114919317E+01 -1.53817274966E+01  7.77972577799E+01  5.00000000000E-03  0.0000E+00  9.0
  3000022    1    3    3    0    0 -3.74101515748E+01  5.37931353726E+01 -9.78187291307E+01  1.32142819036E+02  6.00000000000E+01  0.0000E+00  9.0
       -4    1    4    4    0  504  1.48382197910E+01 -6.27450737661E+01  3.94430781256E+01  7.55978107388E+01  1.46817165330E+00  0.0000E+00  9.0
        3    1    4    4  504    0 -4.59638873941E+01 -3.88064529030E+00  3.77423404384E+01  5.96008608496E+01  2.00000000000E-01  0.0000E+00  9.0
  3000022    1    4    4    0    0  3.86121346930E+01 -4.97589531897E+01  6.52262960648E+01  1.08725894185E+02  6.00000000000E+01  0.0000E+00  9.0
</event>
<event>
10    1   3.4312288E-02   4.7700000E+02  -1.0000000E+00   9.4010000E-02
       11   -1    0    0    0    0  0.00000000000E+00  0.00000000000E+00  2.37739056690E+02  2.37739056690E+02  0.00000000000E+00  0.0000E+00  9.0
      -11   -1    0    0    0    0  0.00000000000E+00  0.00000000000E+00 -2.39244493510E+02  2.39244493510E+02  0.00000000000E+00  0.0000E+00  9.0
  3000025    2    1    2    0    0 -1.31866779747E+02  1.17497640505E+02 -8.44155296368E+00  2.38441791947E+02  1.59964637359E+02  9.6007E-13  9.0
 -3000025    2    1    2    0    0  1.31866779747E+02 -1.17497640505E+02  6.93611614888E+00  2.38541758257E+02  1.60185884522E+02  9.7517E-13  9.0
        2    1    3    3  500    0 -4.37789967412E+01 -2.14768046367E+01 -1.89462864027E+00  4.88000340138E+01  3.00000000000E-03  0.0000E+00  9.0
       -1    1    3    3    0  500  2.90147575290E+00  4.38393796654E+01 -9.45625320325E+00  4.49414120900E+01  5.00000000000E-03  0.0000E+00  9.0
  3000022    1    3    3    0    0 -9.09892587572E+01  9.51350654752E+01  2.90932887998E+00  1.44700345842E+02  6.00000000000E+01  0.0000E+00  9.0
      -14    1    4    4    0    0  6.20751693330E+01 -8.86100122770E+01  1.65844158309E+01  1.09453660386E+02  0.00000000000E+00  0.0000E+00  9.0
       13    1    4    4    0    0 -1.42735963096E+01  5.86072212943E+00  9.96359324672E+00  1.83675795456E+01  1.05700000000E-01  0.0000E+00  9.0
  3000022    1    4    4    0    0  8.40652067239E+01 -3.47483503590E+01 -1.96118929285E+01  1.10720518326E+02  6.00000000000E+01  0.0000E+00  9.0
</event>
<event>
10    1   3.4312288E-02   4.8840000E+02  -1.0000000E+00   9.3750000E-02
       11   -1    0    0    0    0  0.00000000000E+00  0.00000000000E+00  2.49998870290E+02  2.49998870290E+02  0.00000000000E+00  0.0000E+00  9.0
      -11   -1    0    0    0    0  0.00000000000E+00  0.00000000000E+00 -2.38555327140E+02  2.38555327140E+02  0.00000000000E+00  0.0000E+00  9.0
  3000025    2    1    2    0    0  8.79473821807E+01  1.61690548053E+02 -7.36975769758E+00  2.43986304132E+02  1.59988836840E+02  9.0598E-14  9.0
 -3000025    2    1    2    0    0 -8.79473821807E+01 -1.61690548053E+02  1.88133008555E+01  2.44567893299E+02  1.59940422600E+02  6.2201E-13  9.0
        2    1    3    3  500    0  5.64411496406E+01  1.07640630092E+02  2.21102855902E+01  1.23535312188E+02  3.00000000000E-03  0.0000E+00  9.0
       -1    1    3    3    0  500  1.75021460703E+01 -1.54843363650E+01 -1.46220652807E+00  2.34142662208E+01  5.00000000000E-03  0.0000E+00  9.0
  3000022    1    3    3    0    0  1.40040864697E+01  6.95342543262E+01 -2.80178367597E+01  9.70367257240E+01  6.00000000000E+01  0.0000E+00  9.0
       -4    1    4    4    0  504 -5.45064102015E+01 -4.83419747512E+01 -1.35614172366E+01  7.41212711802E+01  1.46817165330E+00  0.0000E+00  9.0
        3    1    4    4  504    0  7.69160066381E+00  1.11019888234E+01  2.21354537537E+01  2.59313167712E+01  2.00000000000E-01  0.0000E+00  9.0
  3000022    1    4    4    0    0 -4.11325726432E+01 -1.24450562126E+02  1.02392643382E+01  1.44515305348E+02  6.00000000000E+01  0.0000E+00  9.0
</event>
<event>
10    1   3.4312288E-02   4.9530000E+02  -1.0000000E+00   9.3590000E-02
       11   -1    0    0    0    0  0.00000000000E+00  0.00000000000E+00  2.49999997050E+02  2.49999997050E+02  0.00000000000E+00  0.0000E+00  9.0
      -11   -1    0    0    0    0  0.00000000000E+00  0.00000000000E+00 -2.45369538240E+02  2.45369538240E+02  0.00000000000E+00  0.0000E+00  9.0
  3000025    2    1    2    0    0 -1.79257465309E+02 -2.77608723558E+01  5.55927474538E+01  2.48160139657E+02  1.59965610186E+02  2.2080E-12  9.0
 -3000025    2    1    2    0    0  1.79257465309E+02  2.77608723558E+01 -5.09622886368E+01  2.47209395628E+02  1.60035700769E+02  1.1661E-12  9.0
        4    1    3    3  500    0 -5.84553144522E+01 -2.00256772118E+01 -3.71558949094E+01  7.21163475921E+01  1.46817165330E+00  0.0000E+00  9.0
       -3    1    3    3    0  500 -1.96709160055E+01 -1.58061178059E+01  3.91121823011E+01  4.65465476802E+01  2.00000000000E-01  0.0000E+00  9.0
  3000022    1    3    3    0    0 -1.01131234853E+02  8.07092266187E+00  5.36364600623E+01  1.29497244386E+02  6.00000000000E+01  0.0000E+00  9.0
      -14    1    4    4    0    0  5.99309200463E+01 -5.43122609829E+00 -1.68006509430E+01  6.24777981897E+01  0.00000000000E+00  0.0000E+00  9.0
       13    1    4    4    0    0 -4.25171488985E+00 -1.66120191736E+01  2.22553628749E+01  2.80953485422E+01  1.05700000000E-01  0.0000E+00  9.0
  3000022    1    4    4    0    0  1.23578260153E+02  4.98041176276E+01 -5.64170005688E+01  1.56636248896E+02  6.00000000000E+01  0.0000E+00  9.0
</event>
<event>
10    1   3.4312288E-02   4.9800000E+02  -1.0000000E+00   9.3540000E-02
       11   -1    0    0    0    0  0.00000000000E+00  0.00000000000E+00  2.48006716410E+02  2.48006716410E+02  0.00000000000E+00  0.0000E+00  9.0
      -11   -1    0    0    0    0  0.00000000000E+00  0.00000000000E+00 -2.49996238970E+02  2.49996238970E+02  0.00000000000E+00  0.0000E+00  9.0
  3000025    2    1    2    0    0 -1.71320757206E+02 -9.43584356919E+00 -8.44959429499E+01  2.49293391673E+02  1.59899323836E+02  2.5026E-12  9.0
 -3000025    2    1    2    0    0  1.71320757206E+02  9.43584356919E+00  8.25064203919E+01  2.48709563712E+02  1.60029061992E+02  1.9086E-12  9.0
        4    1    3    3  500    0 -6.06072860307E+00  3.24912914062E+00  1.15308109353E+00  7.12561543899E+00  1.46817165330E+00  0.0000E+00  9.0
       -3    1    3    3    0  500 -1.52480814634E+02 -4.25150878110E+01 -6.05853974769E+01  1.69495020312E+02  2.00000000000E-01  0.0000E+00  9.0
  3000022    1    3    3    0    0 -1.27792139690E+01  2.98301151020E+01 -2.50636265661E+01  7.26727559221E+01  6.00000000000E+01  0.0000E+00  9.0
       -4    1    4    4    0  504  6.45474379135E+01  2.58129703427E+01  2.37029443944E+01  7.34620056905E+01  1.46817165330E+00  0.0000E+00  9.0
        3    1    4    4  504    0  3.78228341534E+01 -4.52517187397E+01  5.28777181485E+01  7.92109708872E+01  2.00000000000E-01  0.0000E+00  9.0
  3000022    1    4    4    0    0  6.89504851408E+01  2.88745919672E+01  5.92575784881E+00  9.60365871348E+01  6.00000000000E+01  0.0000E+00  9.0
</event>
<event>
10    1   3.4312288E-02   4.9760000E+02  -1.0000000E+00   9.3540000E-02
       11   -1    0    0    0    0  0.00000000000E+00  0.00000000000E+00  2.47636576580E+02  2.47636576580E+02  0.00000000000E+00  0.0000E+00  9.0
      -11   -1    0    0    0    0  0.00000000000E+00  0.00000000000E+00 -2.50000000000E+02  2.50000000000E+02  0.00000000000E+00  0.0000E+00  9.0
  3000025    2    1    2    0    0  9.09866514348E+00 -1.90433128240E+02 -1.02327479423E-01  2.48760156747E+02  1.59793751678E+02  1.5439E-13  9.0
 -3000025    2    1    2    0    0 -9.09866514348E+00  1.90433128240E+02 -2.26109593705E+00  2.48876419842E+02  1.59958737679E+02  1.1810E-12  9.0
        4    1    3    3  500    0 -4.19389115573E+01 -7.33569405310E+01 -3.62070946468E+01  9.19414066536E+01  1.46817165330E+00  0.0000E+00  9.0
       -3    1    3    3    0  500  2.76467624788E+01 -1.41006902435E+01  4.90001468887E+00  3.14201063788E+01  2.00000000000E-01  0.0000E+00  9.0
  3000022    1    3    3    0    0  2.33908142229E+01 -1.02975497465E+02  3.12047524792E+01  1.25398643715E+02  6.00000000000E+01  0.0000E+00  9.0
       -4    1    4    4    0  504  8.03231345858E+00  7.25626160295E-01  2.62419864972E+01  2.74925803835E+01  1.46817165330E+00  0.0000E+00  9.0
        3    1    4    4  504    0  3.56967049161E+00  5.75668952914E+01 -4.59662649705E+01  7.37538303836E+01  2.00000000000E-01  0.0000E+00  9.0
  3000022    1    4    4    0    0 -2.07006490936E+01  1.32140606787E+02  1.74631825363E+01  1.47630009074E+02  6.00000000000E+01  0.0000E+00  9.0
</event>
<event>
10    1   3.4312288E-02   4.5900000E+02  -1.0000000E+00   9.4450000E-02
       11   -1    0    0    0    0  0.00000000000E+00  0.00000000000E+00  2.10740432650E+02  2.10740432650E+02  0.00000000000E+00  0.0000E+00  9.0
      -11   -1    0    0    0    0  0.00000000000E+00  0.00000000000E+00 -2.49879485470E+02  2.49879485470E+02  0.00000000000E+00  0.0000E+00  9.0
  3000025    2    1    2    0    0  1.58497040626E+02 -1.53652704982E+01  2.28515536721E+01  2.26568325067E+02  1.59541872228E+02  6.8168E-13  9.0
 -3000025    2    1    2    0    0 -1.58497040626E+02  1.53652704982E+01 -6.19906064841E+01  2.34051593059E+02  1.59937204854E+02  1.2972E-12  9.0
        4    1    3    3  500    0  1.80278268640E+01  9.94079265104E+00  3.98455159052E+01  4.48736288450E+01  1.46817165330E+00  0.0000E+00  9.0
       -3    1    3    3    0  500  1.96815000783E+01 -2.31550680177E+01 -3.41587913439E+01  4.57206916648E+01  2.00000000000E-01  0.0000E+00  9.0
  3000022    1    3    3    0    0  1.20787713684E+02 -2.15099513153E+00  1.71648291108E+01  1.35974004557E+02  6.00000000000E+01  0.0000E+00  9.0
       -2    1    4    4    0  504  7.39874239876E+00  7.91993990750E+00  2.22283679539E+00  1.10638080985E+01  3.00000000000E-03  0.0000E+00  9.0
        1    1    4    4  504    0 -1.18673076314E+02  4.06186149869E+01 -1.51175328601E+01  1.26339664200E+02  5.00000000000E-03  0.0000E+00  9.0
  3000022    1    4    4    0    0 -4.72227067108E+01 -3.31732843957E+01 -4.90959104198E+01  9.66481207610E+01  6.00000000000E+01  0.0000E+00  9.0
</event>
<event>
10    1   3.4312288E-02   4.8560000E+02  -1.0000000E+00   9.3810000E-02
       11   -1    0    0    0    0  0.00000000000E+00  0.00000000000E+00  2.37513631990E+02  2.37513631990E+02  0.00000000000E+00  0.0000E+00  9.0
      -11   -1    0    0    0    0  0.00000000000E+00  0.00000000000E+00 -2.48240411950E+02  2.48240411950E+02  0.00000000000E+00  0.0000E+00  9.0
  3000025    2    1    2    0    0 -6.33594580590E+01  9.52452787409E+01  1.36691584343E+02  2.39554965111E+02  1.60049704878E+02  9.6403E-13  9.0
 -3000025    2    1    2    0    0  6.33594580590E+01 -9.52452787409E+01 -1.47418364293E+02  2.46199078831E+02  1.60610486079E+02  1.5958E-12  9.0
        2    1    3    3  500    0 -5.54195582747E+01  2.69467101981E+01  3.32771988853E+01  7.00344529822E+01  3.00000000000E-03  0.0000E+00  9.0
       -1    1    3    3    0  500  3.38186981185E+01  4.28320348345E+01  2.75492463970E+01  6.11330397783E+01  5.00000000000E-03  0.0000E+00  9.0
  3000022    1    3    3    0    0 -4.17585979029E+01  2.54665337084E+01  7.58651390612E+01  1.08387472351E+02  6.00000000000E+01  0.0000E+00  9.0
      -14    1    4    4    0    0  1.15005701839E+01 -6.05454330985E+00  2.51899570537E+01  2.83452737791E+01  0.00000000000E+00  0.0000E+00  9.0
       13    1    4    4    0    0  2.84872464677E+01 -1.15347118629E+01 -2.82840475802E+01  4.17680656612E+01  1.05700000000E-01  0.0000E+00  9.0
  3000022    1    4    4    0    0  2.33716414076E+01 -7.76560235691E+01 -1.44324273767E+02  1.76085739391E+02  6.00000000000E+01  0.0000E+00  9.0
</event>
<event>
10    1   3.4312288E-02   4.4630000E+02  -1.0000000E+00   9.4760000E-02
       11   -1    0    0    0    0  0.00000000000E+00  0.00000000000E+00  2.01234844930E+02  2.01234844930E+02  0.00000000000E+00  0.0000E+00  9.0
      -11   -1    0    0    0    0  0.00000000000E+00  0.00000000000E+00 -2.47501564330E+02  2.47501564330E+02  0.00000000000E+00  0.0000E+00  9.0
  3000025    2    1    2    0    0 -1.06824785496E+02 -1.12166523022E+02 -2.97873398713E+01  2.25440736942E+02  1.61069477472E+02  3.8687E-12  9.0
 -3000025    2    1    2    0    0  1.06824785496E+02  1.12166523022E+02 -1.64793795227E+01  2.23295672323E+02  1.59989136023E+02  1.1924E-12  9.0
        2    1    3    3  500    0 -1.24090813280E+01  3.61475213031E+00  2.89952978245E+01  3.17455357066E+01  3.00000000000E-03  0.0000E+00  9.0
       -1    1    3    3    0  500  1.59761976506E+01 -4.34748509047E+00 -6.73784909497E+00  1.78756301542E+01  5.00000000000E-03  0.0000E+00  9.0
  3000022    1    3    3    0    0 -1.10391901819E+02 -1.11433790062E+02 -5.20447886010E+01  1.75819571082E+02  6.00000000000E+01  0.0000E+00  9.0
       -2    1    4    4    0  504  3.41782178743E+01  5.16790480539E+01 -3.19538622223E+01  6.97131544599E+01  3.00000000000E-03  0.0000E+00  9.0
        1    1    4    4  504    0  5.71776012847E+01 -9.18139205042E+00  1.69320461768E+01  6.03346522439E+01  5.00000000000E-03  0.0000E+00  9.0
  3000022    1    4    4    0    0  1.54689663371E+01  6.96688670188E+01 -1.45756347648E+00  9.32478656191E+01  6.00000000000E+01  0.0000E+00  9.0
</event>
<event>
10    1   3.4312288E-02   4.9200000E+02  -1.0000000E+00   9.3670000E-02
       11   -1    0    0    0    0  0.00000000000E+00  0.00000000000E+00  2.49919453300E+02  2.49919453300E+02  0.00000000000E+00  0.0000E+00  9.0
      -11   -1    0    0    0    0  0.00000000000E+00  0.00000000000E+00 -2.42116444100E+02  2.42116444100E+02  0.00000000000E+00  0.0000E+00  9.0
  3000025    2    1    2    0    0  6.83805164567E+01 -1.67442842711E+02  4.94897629793E+01  2.46732415605E+02  1.60357873721E+02  6.2773E-13  9.0
 -3000025    2    1    2    0    0 -6.83805164567E+01  1.67442842711E+02 -4.16867537783E+01  2.45303481800E+02  1.60383952240E+02  1.5427E-12  9.0
        2    1    3    3  500    0  4.49837325550E+01 -1.31442395418E+02  6.92122590041E+01  1.55212680903E+02  3.00000000000E-03  0.0000E+00  9.0
       -1    1    3    3    0  500  1.43950957983E+01 -8.21816281993E+00 -1.84158231818E+01  2.47769964209E+01  5.00000000000E-03  0.0000E+00  9.0
  3000022    1    3    3    0    0  9.00168810293E+00 -2.77822844739E+01 -1.30667284296E+00  6.67427382807E+01  6.00000000000E+01  0.0000E+00  9.0
       -2    1    4    4    0  504 -5.42055636108E+01  1.12505603307E+02 -2.19994443453E+00  1.24902336513E+02  3.00000000000E-03  0.0000E+00  9.0
        1    1    4    4  504    0  1.41273642865E+01  3.13384131074E+01 -3.61864534556E+01  4.99113012901E+01  5.00000000000E-03  0.0000E+00  9.0
  3000022    1    4    4    0    0 -2.83023171314E+01  2.35988262959E+01 -3.30035588804E+00  7.04898439957E+01  6.00000000000E+01  0.0000E+00  9.0
</event>
<event>
10    1   3.4312288E-02   5.0000000E+02  -1.0000000E+00   9.3490000E-02
       11   -1    0    0    0    0  0.00000000000E+00  0.00000000000E+00  2.49999999910E+02  2.49999999910E+02  0.00000000000E+00  0.0000E+00  9.0
      -11   -1    0    0    0    0  0.00000000000E+00  0.00000000000E+00 -2.49999957130E+02  2.49999957130E+02  0.00000000000E+00  0.0000E+00  9.0
  3000025    2    1    2    0    0 -1.19112244852E+02  1.33558430017E+02 -6.97596704415E+01  2.49949109936E+02  1.59945505831E+02  1.6827E-12  9.0
 -3000025    2    1    2    0    0  1.19112244852E+02 -1.33558430017E+02  6.97597132225E+01  2.50050847116E+02  1.60104426710E+02  7.1973E-13  9.0
        4    1    3    3  500    0 -6.87253619988E+01  6.87424497820E+01 -4.31986263738E+01  1.06381279521E+02  1.46817165330E+00  0.0000E+00  9.0
       -3    1    3    3    0  500 -2.30047614861E+01  1.74913010229E+01  3.22673034045E+01  4.33172428891E+01  2.00000000000E-01  0.0000E+00  9.0
  3000022    1    3    3    0    0 -2.73821213684E+01  4.73246792124E+01 -5.88283474724E+01  1.00250587527E+02  6.00000000000E+01  0.0000E+00  9.0
      -14    1    4    4    0    0 -2.24375903377E+01 -1.15028468538E+01  1.34569001884E+01  2.85805722229E+01  0.00000000000E+00  0.0000E+00  9.0
       13    1    4    4    0    0  6.90902511628E+01 -7.19594784053E+01  5.69812972168E+01  1.14884762885E+02  1.05700000000E-01  0.0000E+00  9.0
  3000022    1    4    4    0    0  7.24595840276E+01 -5.00961047584E+01 -6.78484182657E-01  1.06585512009E+02  6.00000000000E+01  0.0000E+00  9.0
</event>
<event>
10    1   3.4312288E-02   4.7770000E+02  -1.0000000E+00   9.4000000E-02
       11   -1    0    0    0    0  0.00000000000E+00  0.00000000000E+00  2.34754981630E+02  2.34754981630E+02  0.00000000000E+00  0.0000E+00  9.0
      -11   -1    0    0    0    0  0.00000000000E+00  0.00000000000E+00 -2.42996542850E+02  2.42996542850E+02  0.00000000000E+00  0.0000E+00  9.0
  3000025    2    1    2    0    0 -8.82758386553E+01 -1.32179998372E+02 -8.26481137129E+01  2.40239751022E+02  1.60063273772E+02  5.1635E-13  9.0
 -3000025    2    1    2    0    0  8.82758386553E+01  1.32179998372E+02  7.44065524989E+01  2.37511773465E+02  1.60035408019E+02  7.5420E-13  9.0
        2    1    3    3  500    0 -1.21434972690E+01 -5.54859633631E+01 -7.48346726492E+01  9.39488419076E+01  3.00000000000E-03  0.0000E+00  9.0
       -1    1    3    3    0  500 -6.22836708721E+01 -4.12021181489E+01 -8.91532697695E+00  7.52087313905E+01  5.00000000000E-03  0.0000E+00  9.0
  3000022    1    3    3    0    0 -1.38486705154E+01 -3.54919168608E+01  1.10188591310E+00  7.10821777246E+01  6.00000000000E+01  0.0000E+00  9.0
      -14    1    4    4    0    0  2.90038582120E+01  9.20241191913E+01  3.96710777898E+01  1.04323807049E+02  0.00000000000E+00  0.0000E+00  9.0
       13    1    4    4    0    0  1.16285649775E+01 -7.85440167702E+00  4.02288527378E+01  4.26061839905E+01  1.05700000000E-01  0.0000E+00  9.0
  3000022    1    4    4    0    0  4.76434154654E+01  4.80102808582E+01 -5.49337802978E+00  9.05817824260E+01  6.00000000000E+01  0.0000E+00  9.0
</event>
<event>
10    1   3.4312288E-02   4.7770000E+02  -1.0000000E+00   9.4000000E-02
       11   -1    0    0    0    0  0.00000000000E+00  0.00000000000E+00  2.49999971810E+02  2.49999971810E+02  0.00000000000E+00  0.0000E+00  9.0
      -11   -1    0    0    0    0  0.00000000000E+00  0.00000000000E+00 -2.28169542310E+02  2.28169542310E+02  0.00000000000E+00  0.0000E+00  9.0
  3000025    2    1    2    0    0 -1.06852430530E+02  1.41131218418E+02  4.46733603939E+00  2.38892770457E+02  1.60356901825E+02  5.7274E-14  9.0
 -3000025    2    1    2    0    0  1.06852430530E+02 -1.41131218418E+02  1.73630934660E+01  2.39276743661E+02  1.60051305274E+02  3.6563E-13  9.0
        4    1    3    3  500    0  1.08648133426E+01  4.04299668410E+01  2.06377019669E+01  4.66979299136E+01  1.46817165330E+00  0.0000E+00  9.0
       -3    1    3    3    0  500 -8.08756650441E+01  3.89551305669E+01  1.97131521341E+01  9.19076915218E+01  2.00000000000E-01  0.0000E+00  9.0
  3000022    1    3    3    0    0 -3.68415788281E+01  6.17461210098E+01 -3.58835180616E+01  1.00287149021E+02  6.00000000000E+01  0.0000E+00  9.0
      -14    1    4    4    0    0  6.82869542637E+01 -9.02796220897E+01 -3.22426879662E+01  1.17699232005E+02  0.00000000000E+00  0.0000E+00  9.0
       13    1    4    4    0    0  1.99664134455E+01 -3.84896838989E+01  5.21717387905E+00  4.36731440165E+01  1.05700000000E-01  0.0000E+00  9.0
  3000022    1    4    4    0    0  1.85990628202E+01 -1.23619124294E+01  4.43886075536E+01  7.79043676391E+01  6.00000000000E+01  0.0000E+00  9.0
</event>
<event>
10    1   3.4312288E-02   4.3910000E+02  -1.0000000E+00   9.4950000E-02
       11   -1    0    0    0    0  0.00000000000E+00  0.00000000000E+00  1.92839963390E+02  1.92839963390E+02  0.00000000000E+00  0.0000E+00  9.0
      -11   -1    0    0    0    0  0.00000000000E+00  0.00000000000E+00 -2.49999999970E+02  2.49999999970E+02  0.00000000000E+00  0.0000E+00  9.0
  3000025    2    1    2    0    0  2.52336990902E+01  1.45217567903E+02 -5.88073855938E+01  2.25325902672E+02  1.59964284192E+02  6.6966E-13  9.0
 -3000025    2    1    2    0    0 -2.52336990902E+01 -1.45217567903E+02  1.64734900900E+00  2.17514060685E+02  1.59952403044E+02  2.8932E-13  9.0
        2    1    3    3  500    0  1.34877048133E+01 -4.01366944860E+00 -2.12851440227E+01  2.55163690332E+01  3.00000000000E-03  0.0000E+00  9.0
       -1    1    3    3    0  500  1.98375344689E+01  1.31540027486E+02 -2.17661493357E+01  1.34796409027E+02  5.00000000000E-03  0.0000E+00  9.0
  3000022    1    3    3    0    0 -8.09154019212E+00  1.76912098659E+01 -1.57560922353E+01  6.50131246113E+01  6.00000000000E+01  0.0000E+00  9.0
       -2    1    4    4    0  504 -2.23273272300E+01 -4.33907459302E+01 -3.01756926122E+01  5.73745484273E+01  3.00000000000E-03  0.0000E+00  9.0
        1    1    4    4  504    0  5.34114900751E+00 -8.66652521338E+01  4.27082053381E+01  9.67645835435E+01  5.00000000000E-03  0.0000E+00  9.0
  3000022    1    4    4    0    0 -8.24752086843E+00 -1.51615698393E+01 -1.08851637160E+01  6.33749287147E+01  6.00000000000E+01  0.0000E+00  9.0
</event>
<event>
10    1   3.4312288E-02   4.7740000E+02  -1.0000000E+00   9.4000000E-02
       11   -1    0    0    0    0  0.00000000000E+00  0.00000000000E+00  2.28285782270E+02  2.28285782270E+02  0.00000000000E+00  0.0000E+00  9.0
      -11   -1    0    0    0    0  0.00000000000E+00  0.00000000000E+00 -2.49616820420E+02  2.49616820420E+02  0.00000000000E+00  0.0000E+00  9.0
  3000025    2    1    2    0    0 -1.65186583265E+02  3.63809835236E+01  4.23423820940E+01  2.36594592483E+02  1.59918543697E+02  2.7724E-13  9.0
 -3000025    2    1    2    0    0  1.65186583265E+02 -3.63809835236E+01 -6.36734202370E+01  2.41308010210E+02  1.59890800529E+02  4.9772E-13  9.0
        2    1    3    3  500    0 -3.03117641123E+01  4.80460801263E+01 -3.31595319888E+00  5.69053988100E+01  3.00000000000E-03  0.0000E+00  9.0
       -1    1    3    3    0  500 -8.84202876897E+00 -3.03833302863E+01  1.71676917471E+01  3.60008041155E+01  5.00000000000E-03  0.0000E+00  9.0
  3000022    1    3    3    0    0 -1.26032790383E+02  1.87182336831E+01  2.84906435461E+01  1.43688389558E+02  6.00000000000E+01  0.0000E+00  9.0
       -4    1    4    4    0  504  9.31162726071E+01  2.67863234810E+01 -9.22215083437E+00  9.73414143306E+01  1.46817165330E+00  0.0000E+00  9.0
        3    1    4    4  504    0  4.41974599333E+01 -3.32046419928E+01 -4.38695145199E+01  7.05729269524E+01  2.00000000000E-01  0.0000E+00  9.0
  3000022    1    4    4    0    0  2.78728507252E+01 -2.99626650129E+01 -1.05817548819E+01  7.33936689273E+01  6.00000000000E+01  0.0000E+00  9.0
</event>
<event>
10    1   3.4312288E-02   4.7250000E+02  -1.0000000E+00   9.4120000E-02
       11   -1    0    0    0    0  0.00000000000E+00  0.00000000000E+00  2.39936873590E+02  2.39936873590E+02  0.00000000000E+00  0.0000E+00  9.0
      -11   -1    0    0    0    0  0.00000000000E+00  0.00000000000E+00 -2.32668629790E+02  2.32668629790E+02  0.00000000000E+00  0.0000E+00  9.0
  3000025    2    1    2    0    0  1.15918624694E+02 -6.79752403333E+01  1.14422221829E+02  2.37808441979E+02  1.59382086129E+02  6.3243E-12  9.0
 -3000025    2    1    2    0    0 -1.15918624694E+02  6.79752403333E+01 -1.07153978029E+02  2.34797061397E+02  1.59968509976E+02  1.2984E-12  9.0
        2    1    3    3  500    0  8.75165512425E+01 -4.54023044017E+01  4.25308057868E+01  1.07374975838E+02  3.00000000000E-03  0.0000E+00  9.0
       -1    1    3    3    0  500  5.09687042325E+00 -1.56558097628E+01  6.29663543311E+01  6.50833640049E+01  5.00000000000E-03  0.0000E+00  9.0
  3000022    1    3    3    0    0  2.33052030278E+01 -6.91712616857E+00  8.92506171078E+00  6.53501021356E+01  6.00000000000E+01  0.0000E+00  9.0
       -2    1    4    4    0  504  4.44010202384E+00  2.31184548700E+01 -5.04501422414E+01  5.56722042202E+01  3.00000000000E-03  0.0000E+00  9.0
        1    1    4    4  504    0 -6.19547633264E+01 -1.62544890052E+01 -3.57991199142E+01  7.33769590763E+01  5.00000000000E-03  0.0000E+00  9.0
  3000022    1    4    4    0    0 -5.84039633909E+01  6.11112744683E+01 -2.09047158738E+01  1.05747898100E+02  6.00000000000E+01  0.0000E+00  9.0
</event>
<event>
10    1   3.4312288E-02   4.8740000E+02  -1.0000000E+00   9.3770000E-02
       11   -1    0    0    0    0  0.00000000000E+00  0.00000000000E+00  2.37524445640E+02  2.37524445640E+02  0.00000000000E+00  0.0000E+00  9.0
      -11   -1    0    0    0    0  0.00000000000E+00  0.00000000000E+00 -2.49999999680E+02  2.49999999680E+02  0.00000000000E+00  0.0000E+00  9.0
  3000025    2    1    2    0    0  1.52056404255E+01  1.79884686910E+02  2.82122512753E+01  2.42861561935E+02  1.59987796591E+02  1.9641E-12  9.0
 -3000025    2    1    2    0    0 -1.52056404255E+01 -1.79884686910E+02 -4.06878053213E+01  2.44662883383E+02  1.60045983760E+02  1.8986E-12  9.0
        2    1    3    3  500    0 -3.86798891484E+01  2.11996320766E+01 -3.07614954745E+00  4.42156186178E+01  3.00000000000E-03  0.0000E+00  9.0
       -1    1    3    3    0  500  3.69388526074E+01  8.45114693435E+01  4.16449152223E+01  1.01197659417E+02  5.00000000000E-03  0.0000E+00  9.0
  3000022    1    3    3    0    0  1.69466769666E+01  7.41735854898E+01 -1.03565143994E+01  9.74482839003E+01  6.00000000000E+01  0.0000E+00  9.0
       -4    1    4    4    0  504  1.43598696248E+01 -6.28916621554E+01  2.42450673659E+00  6.45724460218E+01  1.46817165330E+00  0.0000E+00  9.0
        3    1    4    4  504    0 -3.89290884133E+01  4.32127596610E+00 -8.50344568989E+00  4.00811169912E+01  2.00000000000E-01  0.0000E+00  9.0
  3000022    1    4    4    0    0  9.36357836289E+00 -1.21314300721E+02 -3.46088663683E+01  1.40009320370E+02  6.00000000000E+01  0.0000E+00  9.0
</event>
<event>
10    1   3.4312288E-02   4.9540000E+02  -1.0000000E+00   9.3590000E-02
       11   -1    0    0    0    0  0.00000000000E+00  0.00000000000E+00  2.49999808760E+02  2.49999808760E+02  0.00000000000E+00  0.0000E+00  9.0
      -11   -1    0    0    0    0  0.00000000000E+00  0.00000000000E+00 -2.45459191730E+02  2.45459191730E+02  0.00000000000E+00  0.0000E+00  9.0
  3000025    2    1    2    0    0  1.81684027609E+02 -4.00167039403E+01  3.54660213636E+01  2.47902566550E+02  1.59960686884E+02  2.0929E-12  9.0
 -3000025    2    1    2    0    0 -1.81684027609E+02  4.00167039403E+01 -3.09254043366E+01  2.47556433945E+02  1.60366408178E+02  1.4242E-12  9.0
       14    1    3    3    0    0  5.48574248952E+01 -1.53960045239E+01  4.54643454349E+01  7.28929401743E+01  0.00000000000E+00  0.0000E+00  9.0
      -13    1    3    3    0    0  2.09637721880E-01 -2.38481461494E+01 -2.44439624788E+01  3.41510833926E+01  1.05700000000E-01  0.0000E+00  9.0
  3000022    1    3    3    0    0  1.26616964993E+02 -7.72553266648E-01  1.44456384078E+01  1.40858542984E+02  6.00000000000E+01  0.0000E+00  9.0
      -14    1    4    4    0    0 -5.39855765141E+01  2.24520442104E+01  4.16415228510E+01  7.17812871585E+01  0.00000000000E+00  0.0000E+00  9.0
       13    1    4    4    0    0 -7.77022804376E+01 -6.73463041389E+00 -2.99576966160E+01  8.35492333361E+01  1.05700000000E-01  0.0000E+00  9.0
  3000022    1    4    4    0    0 -4.99961706579E+01  2.42992901443E+01 -4.26092305716E+01  9.22259134511E+01  6.00000000000E+01  0.0000E+00  9.0
</event>
<event>
10    1   3.4312288E-02   4.9320000E+02  -1.0000000E+00   9.3640000E-02
       11   -1    0    0    0    0  0.00000000000E+00  0.00000000000E+00  2.47764482640E+02  2.47764482640E+02  0.00000000000E+00  0.0000E+00  9.0
      -11   -1    0    0    0    0  0.00000000000E+00  0.00000000000E+00 -2.45463076630E+02  2.45463076630E+02  0.00000000000E+00  0.0000E+00  9.0
  3000025    2    1    2    0    0  1.28422384380E+02  4.80725682809E+01 -1.26776969342E+02  2.46018316101E+02  1.60154086026E+02  8.4364E-13  9.0
 -3000025    2    1    2    0    0 -1.28422384380E+02 -4.80725682809E+01  1.29078375342E+02  2.47209243169E+02  1.60149624715E+02  1.1381E-12  9.0
        4    1    3    3  500    0  5.19317837066E+01  1.89092634900E+01 -3.83784894948E+01  6.73018156411E+01  1.46817165330E+00  0.0000E+00  9.0
       -3    1    3    3    0  500 -2.89607877971E+01  6.11734239177E-01 -2.77071128660E+01  4.00852286008E+01  2.00000000000E-01  0.0000E+00  9.0
  3000022    1    3    3    0    0  1.05451388470E+02  2.85515705516E+01 -6.06913669816E+01  1.38631271859E+02  6.00000000000E+01  0.0000E+00  9.0
       -4    1    4    4    0  504 -6.06100636772E+01 -2.76579176385E+01  7.36741136758E+01  9.93406803931E+01  1.46817165330E+00  0.0000E+00  9.0
        3    1    4    4  504    0  5.57656480438E+00 -3.53162538109E+01 -2.41710798724E+00  3.58359912556E+01  2.00000000000E-01  0.0000E+00  9.0
  3000022    1    4    4    0    0 -7.33888855071E+01  1.49016031673E+01  5.78213696547E+01  1.12032571521E+02  6.00000000000E+01  0.0000E+00  9.0
</event>
<event>
10    1   3.4312288E-02   4.9640000E+02  -1.0000000E+00   9.3570000E-02
       11   -1    0    0    0    0  0.00000000000E+00  0.00000000000E+00  2.49999999990E+02  2.49999999990E+02  0.00000000000E+00  0.0000E+00  9.0
      -11   -1    0    0    0    0  0.00000000000E+00  0.00000000000E+00 -2.46434228940E+02  2.46434228940E+02  0.00000000000E+00  0.0000E+00  9.0
  3000025    2    1    2    0    0 -6.73002557951E+01 -1.16976675810E+01  1.78875339397E+02  2.49419938909E+02  1.59836663579E+02  6.1140E-12  9.0
 -3000025    2    1    2    0    0  6.73002557951E+01  1.16976675810E+01 -1.75309568337E+02  2.47014290025E+02  1.60051413205E+02  4.7912E-14  9.0
        4    1    3    3  500    0 -3.27239616831E+01 -5.97737236910E+01  3.83464852085E+01  7.82071874444E+01  1.46817165330E+00  0.0000E+00  9.0
       -3    1    3    3    0  500 -1.04047803828E+01  1.34679400723E+01  5.95949997245E+01  6.19778093899E+01  2.00000000000E-01  0.0000E+00  9.0
  3000022    1    3    3    0    0 -2.41715137293E+01  3.46081160376E+01  8.09338544639E+01  1.09234942075E+02  6.00000000000E+01  0.0000E+00  9.0
       -2    1    4    4    0  504  5.62607191181E+01  6.48496105455E+00 -2.38602342114E+01  6.14543246744E+01  3.00000000000E-03  0.0000E+00  9.0
        1    1    4    4  504    0  2.13429499677E+01 -1.23052381367E+01 -1.02732535674E+02  1.05645228524E+02  5.00000000000E-03  0.0000E+00  9.0
  3000022    1    4    4    0    0 -1.03034132906E+01  1.75179446632E+01 -4.87167984535E+01  7.99147368276E+01  6.00000000000E+01  0.0000E+00  9.0
</event>
<event>
10    1   3.4312288E-02   4.9850000E+02  -1.0000000E+00   9.3520000E-02
       11   -1    0    0    0    0  0.00000000000E+00  0.00000000000E+00  2.48564225860E+02  2.48564225860E+02  0.00000000000E+00  0.0000E+00  9.0
      -11   -1    0    0    0    0  0.00000000000E+00  0.00000000000E+00 -2.49924828960E+02  2.49924828960E+02  0.00000000000E+00  0.0000E+00  9.0
  3000025    2    1    2    0    0 -2.82766747299E+00  1.78004480833E+02 -7.02466324654E+01  2.49416321730E+02  1.59938492155E+02  3.3312E-13  9.0
 -3000025    2    1    2    0    0  2.82766747299E+00 -1.78004480833E+02  6.88860293654E+01  2.49072733083E+02  1.59994844991E+02  1.1485E-12  9.0
        2    1    3    3  500    0 -7.21780864444E+00  5.63680479974E+01  2.58292701873E+01  6.24227907425E+01  3.00000000000E-03  0.0000E+00  9.0
       -1    1    3    3    0  500  1.79797798089E+01  8.89722715431E+01 -5.44202878455E+01  1.05834329684E+02  5.00000000000E-03  0.0000E+00  9.0
  3000022    1    3    3    0    0 -1.35896386375E+01  3.26641612922E+01 -4.16556148071E+01  8.11592013032E+01  6.00000000000E+01  0.0000E+00  9.0
       -2    1    4    4    0  504  2.91584635893E+01 -4.42218760029E+01 -2.00194553609E+01  5.66265743097E+01  3.00000000000E-03  0.0000E+00  9.0
        1    1    4    4  504    0  3.22836352388E+00 -8.82035206800E+01  5.89633477665E+01  1.06145936315E+02  5.00000000000E-03  0.0000E+00  9.0
  3000022    1    4    4    0    0 -2.95591596397E+01 -4.55790841499E+01  2.99421369594E+01  8.63002224577E+01  6.00000000000E+01  0.0000E+00  9.0
</event>
<event>
10    1   3.4312288E-02   5.0000000E+02  -1.0000000E+00   9.3490000E-02
       11   -1    0    0    0    0  0.00000000000E+00  0.00000000000E+00  2.49987827950E+02  2.49987827950E+02  0.00000000000E+00  0.0000E+00  9.0
      -11   -1    0    0    0    0  0.00000000000E+00  0.00000000000E+00 -2.49983441090E+02  2.49983441090E+02  0.00000000000E+00  0.0000E+00  9.0
  3000025    2    1    2    0    0 -3.88674218346E+01  1.82641660466E+02 -4.47387318827E+01  2.50028028789E+02  1.60136842830E+02  1.9319E-12  9.0
 -3000025    2    1    2    0    0  3.88674218346E+01 -1.82641660466E+02  4.47431187457E+01  2.49943240253E+02  1.60003200140E+02  1.0124E-12  9.0
       14    1    3    3    0    0  3.66681640427E+01  1.06391653459E+01 -1.05489902221E+01  3.96109490953E+01  0.00000000000E+00  0.0000E+00  9.0
      -13    1    3    3    0    0  1.42527943190E+00  2.12985154169E+01 -2.17055850574E+01  3.04434192494E+01  1.05700000000E-01  0.0000E+00  9.0
  3000022    1    3    3    0    0 -7.69608653089E+01  1.50703979705E+02 -1.24841566032E+01  1.79973660445E+02  6.00000000000E+01  0.0000E+00  9.0
       -4    1    4    4    0  500  1.17683527432E+01  5.48460859781E-01 -2.37167960898E+01  2.65223845152E+01  1.46817165330E+00  0.0000E+00  9.0
        3    1    4    4  500    0 -2.12189196550E+01 -5.58411814882E+01  3.99867417442E+01  7.18850444574E+01  2.00000000000E-01  0.0000E+00  9.0
  3000022    1    4    4    0    0  4.83179887469E+01 -1.27348939838E+02  2.84731730908E+01  1.51535811280E+02  6.00000000000E+01  0.0000E+00  9.0
</event>
<event>
10    1   3.4312288E-02   4.3580000E+02  -1.0000000E+00   9.5040000E-02
       11   -1    0    0    0    0  0.00000000000E+00  0.00000000000E+00  2.01072260890E+02  2.01072260890E+02  0.00000000000E+00  0.0000E+00  9.0
      -11   -1    0    0    0    0  0.00000000000E+00  0.00000000000E+00 -2.36163445700E+02  2.36163445700E+02  0.00000000000E+00  0.0000E+00  9.0
  3000025    2    1    2    0    0 -1.30765816799E+00  1.24690492395E+02  6.24105436883E+01  2.12126088782E+02  1.59852972181E+02  2.9243E-12  9.0
 -3000025    2    1    2    0    0  1.30765816799E+00 -1.24690492395E+02 -9.75017284993E+01  2.25109617798E+02  1.60057252573E+02  1.1402E-11  9.0
        2    1    3    3  500    0 -3.60412483203E+01  6.92573986430E+01  6.97690214347E+01  1.04705659867E+02  3.00000000000E-03  0.0000E+00  9.0
       -1    1    3    3    0  500  3.00470610468E+01  1.31812463112E+01  3.85488526017E+00  3.30368172988E+01  5.00000000000E-03  0.0000E+00  9.0
  3000022    1    3    3    0    0  4.68652910560E+00  4.22518474414E+01 -1.12133630060E+01  7.43836116169E+01  6.00000000000E+01  0.0000E+00  9.0
       -2    1    4    4    0  504  2.45278281327E+01 -5.71257898901E+01 -8.13344425584E+00  6.26986694271E+01  3.00000000000E-03  0.0000E+00  9.0
        1    1    4    4  504    0 -4.39399049108E+01 -5.27465028091E+01 -5.89136129748E+01  9.04639299440E+01  5.00000000000E-03  0.0000E+00  9.0
  3000022    1    4    4    0    0  2.07197349460E+01 -1.48181996959E+01 -3.04546712684E+01  7.19470184270E+01  6.00000000000E+01  0.0000E+00  9.0
</event>
<event>
10    1   3.4312288E-02   4.8090000E+02  -1.0000000E+00   9.3920000E-02
       11   -1    0    0    0    0  0.00000000000E+00  0.00000000000E+00  2.49982476560E+02  2.49982476560E+02  0.00000000000E+00  0.0000E+00  9.0
      -11   -1    0    0    0    0  0.00000000000E+00  0.00000000000E+00 -2.31314491510E+02  2.31314491510E+02  0.00000000000E+00  0.0000E+00  9.0
  3000025    2    1    2    0    0 -1.54059613348E+02  5.02525140232E+01 -6.78774817758E+01  2.37679968245E+02  1.60077278657E+02  2.9097E-12  9.0
 -3000025    2    1    2    0    0  1.54059613348E+02 -5.02525140232E+01  8.65454668248E+01  2.43616999821E+02  1.59998266064E+02  9.0745E-13  9.0
        4    1    3    3  500    0 -2.26065237851E+01  5.06929951647E+01 -2.13820677717E+01  5.94994371958E+01  1.46817165330E+00  0.0000E+00  9.0
       -3    1    3    3    0  500 -4.26358518887E+01 -2.29615671552E+01 -4.86377593047E+01  6.86346928505E+01  2.00000000000E-01  0.0000E+00  9.0
  3000022    1    3    3    0    0 -8.88172376736E+01  2.25210860143E+01  2.14234530084E+00  1.09545838199E+02  6.00000000000E+01  0.0000E+00  9.0
      -14    1    4    4    0    0  1.69777036114E+01 -1.30204250724E+01  7.20170033403E+01  7.51280417627E+01  0.00000000000E+00  0.0000E+00  9.0
       13    1    4    4    0    0  6.65919713789E+01  2.79818720744E+00  1.11706815518E+01  6.75804394969E+01  1.05700000000E-01  0.0000E+00  9.0
  3000022    1    4    4    0    0  7.04899383567E+01 -4.00302761578E+01  3.35778193364E+00  1.00908518562E+02  6.00000000000E+01  0.0000E+00  9.0
</event>
<event>
10    1   3.4312288E-02   5.0000000E+02  -1.0000000E+00   9.3490000E-02
       11   -1    0    0    0    0  0.00000000000E+00  0.00000000000E+00  2.50000000000E+02  2.50000000000E+02  0.00000000000E+00  0.0000E+00  9.0
      -11   -1    0    0    0    0  0.00000000000E+00  0.00000000000E+00 -2.49999916510E+02  2.49999916510E+02  0.00000000000E+00  0.0000E+00  9.0
  3000025    2    1    2    0    0  1.78592973580E+02 -6.12922536243E+01  3.42181999431E+01  2.49764766839E+02  1.59872958878E+02  3.2506E-13  9.0
 -3000025    2    1    2    0    0 -1.78592973580E+02  6.12922536243E+01 -3.42181164511E+01  2.50235149661E+02  1.60606849374E+02  1.4365E-12  9.0
        2    1    3    3  500    0  6.27826371041E+00 -5.16234900472E+00  1.47667798717E+01  1.68559852647E+01  3.00000000000E-03  0.0000E+00  9.0
       -1    1    3    3    0  500  1.16778383710E+02  1.85851481668E+01  2.89720440982E+01  1.21745546114E+02  5.00000000000E-03  0.0000E+00  9.0
  3000022    1    3    3    0    0  5.55363261595E+01 -7.47150527864E+01 -9.52062402678E+00  1.11163235460E+02  6.00000000000E+01  0.0000E+00  9.0
       -4    1    4    4    0  504 -8.62435602020E+01  4.20539485384E+01  3.75521845604E+01  1.03047602385E+02  1.46817165330E+00  0.0000E+00  9.0
        3    1    4    4  504    0 -1.60553645683E+01 -1.79482270690E+01 -1.86519056161E+01  3.04605838660E+01  2.00000000000E-01  0.0000E+00  9.0
  3000022    1    4    4    0    0 -7.62940488101E+01  3.71865321550E+01 -5.31183953965E+01  1.16726963411E+02  6.00000000000E+01  0.0000E+00  9.0
</event>
<event>
10    1   3.4312288E-02   4.9170000E+02  -1.0000000E+00   9.3680000E-02
       11   -1    0    0    0    0  0.00000000000E+00  0.00000000000E+00  2.41841047400E+02  2.41841047400E+02  0.00000000000E+00  0.0000E+00  9.0
      -11   -1    0    0    0    0  0.00000000000E+00  0.00000000000E+00 -2.49947325530E+02  2.49947325530E+02  0.00000000000E+00  0.0000E+00  9.0
  3000025    2    1    2    0    0  6.47545858558E+01 -7.47677410493E+01 -1.62445140740E+02  2.48465093564E+02  1.59884669306E+02  2.5486E-12  9.0
 -3000025    2    1    2    0    0 -6.47545858558E+01  7.47677410493E+01  1.54338862610E+02  2.43323279356E+02  1.60007381936E+02  8.1758E-13  9.0
       14    1    3    3    0    0 -3.27505282366E+00 -1.36982108306E+01 -6.84363636507E+01  6.98706148584E+01  0.00000000000E+00  0.0000E+00  9.0
      -13    1    3    3    0    0  3.93482429180E+01 -6.93340085112E+01 -2.79065819475E+01  8.44646520472E+01  1.05700000000E-01  0.0000E+00  9.0
  3000022    1    3    3    0    0  2.86813957611E+01  8.26447829242E+00 -6.61021951420E+01  9.41298266590E+01  6.00000000000E+01  0.0000E+00  9.0
       -4    1    4    4    0  500 -2.67883185855E+01  4.77015185949E+01  6.21519546899E+01  8.28134644166E+01  1.46817165330E+00  0.0000E+00  9.0
        3    1    4    4  500    0  1.58714257578E+01  1.69879742066E+00  7.18296868842E+01  7.35821444791E+01  2.00000000000E-01  0.0000E+00  9.0
  3000022    1    4    4    0    0 -5.38376930280E+01  2.53674250337E+01  2.03572210358E+01  8.69276704607E+01  6.00000000000E+01  0.0000E+00  9.0
</event>
<event>
10    1   3.4312288E-02   4.9850000E+02  -1.0000000E+00   9.3520000E-02
       11   -1    0    0    0    0  0.00000000000E+00  0.00000000000E+00  2.48483216790E+02  2.48483216790E+02  0.00000000000E+00  0.0000E+00  9.0
      -11   -1    0    0    0    0  0.00000000000E+00  0.00000000000E+00 -2.49991153180E+02  2.49991153180E+02  0.00000000000E+00  0.0000E+00  9.0
  3000025    2    1    2    0    0 -1.67779088500E+02  4.88521469767E+01  7.65497665977E+01  2.48991940848E+02  1.60002390729E+02  4.6300E-13  9.0
 -3000025    2    1    2    0    0  1.67779088500E+02 -4.88521469767E+01 -7.80577029907E+01  2.49482429130E+02  1.60037878786E+02  2.0471E-13  9.0
        2    1    3    3  500    0 -5.41773397020E+00  2.95276378184E+01 -2.38355058139E+01  3.83322916470E+01  3.00000000000E-03  0.0000E+00  9.0
       -1    1    3    3    0  500 -3.94673792758E+01  2.76134712936E+01  2.45846395048E+01  5.40794078034E+01  5.00000000000E-03  0.0000E+00  9.0
  3000022    1    3    3    0    0 -1.22893975254E+02 -8.28896213536E+00  7.58006329069E+01  1.56580241398E+02  6.00000000000E+01  0.0000E+00  9.0
      -14    1    4    4    0    0 -3.17160506507E+00 -4.04619857910E+01 -2.62399020835E+01  4.83297406799E+01  0.00000000000E+00  0.0000E+00  9.0
       13    1    4    4    0    0  5.68569393611E+01  1.06422859327E+00  1.02247271703E+01  5.77788919434E+01  1.05700000000E-01  0.0000E+00  9.0
  3000022    1    4    4    0    0  1.14093754204E+02 -9.45438977900E+00 -6.20425280778E+01  1.43373796507E+02  6.00000000000E+01  0.0000E+00  9.0
</event>
<event>
10    1   3.4312288E-02   5.0000000E+02  -1.0000000E+00   9.3490000E-02
       11   -1    0    0    0    0  0.00000000000E+00  0.00000000000E+00  2.49999999900E+02  2.49999999900E+02  0.00000000000E+00  0.0000E+00  9.0
      -11   -1    0    0    0    0  0.00000000000E+00  0.00000000000E+00 -2.49995330830E+02  2.49995330830E+02  0.00000000000E+00  0.0000E+00  9.0
  3000025    2    1    2    0    0  7.52472686025E+01  1.61971755480E+02 -6.95027846260E+01  2.49685007838E+02  1.60046758988E+02  2.8301E-14  9.0
 -3000025    2    1    2    0    0 -7.52472686025E+01 -1.61971755480E+02  6.95074537050E+01  2.50310322894E+02  1.61018541234E+02  1.0612E-12  9.0
        2    1    3    3  500    0  3.00624142915E+01  1.04994400519E+02  1.29893283549E+01  1.09983160317E+02  3.00000000000E-03  0.0000E+00  9.0
       -1    1    3    3    0  500 -5.82714031684E+00  2.05061895637E+01 -3.44240214693E+01  4.04904019962E+01  5.00000000000E-03  0.0000E+00  9.0
  3000022    1    3    3    0    0  5.10119946285E+01  3.64711653979E+01 -4.80680915117E+01  9.92114455244E+01  6.00000000000E+01  0.0000E+00  9.0
       -2    1    4    4    0  504  2.72264015630E+01  2.24988173967E-01  1.06486858198E-01  2.72275395546E+01  3.00000000000E-03  0.0000E+00  9.0
        1    1    4    4  504    0 -3.96005159355E+01 -7.72952665503E+01  8.74795925960E+00  8.72885210646E+01  5.00000000000E-03  0.0000E+00  9.0
  3000022    1    4    4    0    0 -6.28731542299E+01 -8.49014771030E+01  6.06530075871E+01  1.35794262274E+02  6.00000000000E+01  0.0000E+00  9.0
</event>
<event>
10    1   3.4312288E-02   4.9200000E+02  -1.0000000E+00   9.3670000E-02
       11   -1    0    0    0    0  0.00000000000E+00  0.00000000000E+00  2.42167398730E+02  2.42167398730E+02  0.00000000000E+00  0.0000E+00  9.0
      -11   -1    0    0    0    0  0.00000000000E+00  0.00000000000E+00 -2.49906477200E+02  2.49906477200E+02  0.00000000000E+00  0.0000E+00  9.0
  3000025    2    1    2    0    0  4.89870183480E+01  1.57852671570E+02 -9.11296470852E+01  2.47447563186E+02  1.60026529238E+02  3.3138E-13  9.0
 -3000025    2    1    2    0    0 -4.89870183480E+01 -1.57852671570E+02  8.33905686182E+01  2.44626312747E+02  1.59908886761E+02  7.5625E-13  9.0
        4    1    3    3  500    0 -1.38107063700E+01  6.41218955209E+01 -5.81000909950E+01  8.76363463254E+01  1.46817165330E+00  0.0000E+00  9.0
       -3    1    3    3    0  500  2.07915218661E+01  3.08053055208E+01  2.71551106451E+01  4.60292761608E+01  2.00000000000E-01  0.0000E+00  9.0
  3000022    1    3    3    0    0  4.20062028524E+01  6.29254705285E+01 -6.01846667342E+01  1.13781940699E+02  6.00000000000E+01  0.0000E+00  9.0
       -4    1    4    4    0  504 -6.90829223639E+00 -5.85796145564E+01  7.02882179794E+01  9.17708279243E+01  1.46817165330E+00  0.0000E+00  9.0
        3    1    4    4  504    0 -3.71066543548E+01 -7.97529987239E+01 -1.18894728024E+00  8.79710077156E+01  2.00000000000E-01  0.0000E+00  9.0
  3000022    1    4    4    0    0 -4.97207175639E+00 -1.95200582903E+01  1.42912979191E+01  6.48844771068E+01  6.00000000000E+01  0.0000E+00  9.0
</event>
<event>
10    1   3.4312288E-02   4.9910000E+02  -1.0000000E+00   9.3510000E-02
       11   -1    0    0    0    0  0.00000000000E+00  0.00000000000E+00  2.49225506000E+02  2.49225506000E+02  0.00000000000E+00  0.0000E+00  9.0
      -11   -1    0    0    0    0  0.00000000000E+00  0.00000000000E+00 -2.49828579760E+02  2.49828579760E+02  0.00000000000E+00  0.0000E+00  9.0
  3000025    2    1    2    0    0  1.73960273608E+02  7.40458146669E+01  2.92089102160E+01  2.49473040235E+02  1.60120822833E+02  1.1121E-12  9.0
 -3000025    2    1    2    0    0 -1.73960273608E+02 -7.40458146669E+01 -2.98119839770E+01  2.49581045513E+02  1.60177977348E+02  2.4831E-12  9.0
       14    1    3    3    0    0 -7.68142870115E-01  4.55740653652E+01  2.70927881705E+01  5.30245664597E+01  0.00000000000E+00  0.0000E+00  9.0
      -13    1    3    3    0    0  4.18693139118E+01 -1.39411667220E+01 -5.28404658885E+00  4.44446610726E+01  1.05700000000E-01  0.0000E+00  9.0
  3000022    1    3    3    0    0  1.32859102566E+02  4.24129160239E+01  7.40016863474E+00  1.52003812703E+02  6.00000000000E+01  0.0000E+00  9.0
       -4    1    4    4    0  500  7.79269924855E+00 -2.14972356120E+01  6.96756412245E+00  2.39491080907E+01  1.46817165330E+00  0.0000E+00  9.0
        3    1    4    4  500    0 -7.09186216828E+01 -2.18303126025E+01 -5.80058050309E+01  9.41845362413E+01  2.00000000000E-01  0.0000E+00  9.0
  3000022    1    4    4    0    0 -1.10834351173E+02 -3.07182664527E+01  2.12262569315E+01  1.31447401181E+02  6.00000000000E+01  0.0000E+00  9.0
</event>
<event>
10    1   3.4312288E-02   4.5310000E+02  -1.0000000E+00   9.4590000E-02
       11   -1    0    0    0    0  0.00000000000E+00  0.00000000000E+00  2.49015767000E+02  2.49015767000E+02  0.00000000000E+00  0.0000E+00  9.0
      -11   -1    0    0    0    0  0.00000000000E+00  0.00000000000E+00 -2.06113171920E+02  2.06113171920E+02  0.00000000000E+00  0.0000E+00  9.0
  3000025    2    1    2    0    0  1.25594741119E+02  9.63146951751E+01  4.63864426371E+01  2.29795605819E+02  1.60011746100E+02  2.2253E-12  9.0
 -3000025    2    1    2    0    0 -1.25594741119E+02 -9.63146951751E+01 -3.48384756008E+00  2.25333333093E+02  1.60350909899E+02  1.0006E-12  9.0
        4    1    3    3  500    0  2.88825642717E+01  2.18101259841E+01 -2.41755076651E+01  4.35487636244E+01  1.46817165330E+00  0.0000E+00  9.0
       -3    1    3    3    0  500  6.13673199941E+01  7.59421645065E+01  6.29703268538E+01  1.16182883323E+02  2.00000000000E-01  0.0000E+00  9.0
  3000022    1    3    3    0    0  3.53448568524E+01 -1.43759531484E+00  7.59162344866E+00  7.00639588718E+01  6.00000000000E+01  0.0000E+00  9.0
       -4    1    4    4    0  504 -3.40088251615E+01  1.62423467090E+01  9.61796049211E+00  3.89239605836E+01  1.46817165330E+00  0.0000E+00  9.0
        3    1    4    4  504    0  3.51886047090E+00 -5.70293133959E+01  1.23082424954E+01  5.84487621660E+01  2.00000000000E-01  0.0000E+00  9.0
  3000022    1    4    4    0    0 -9.51047764284E+01 -5.55277284880E+01 -2.54100505486E+01  1.27960610343E+02  6.00000000000E+01  0.0000E+00  9.0
</event>
<event>
10    1   3.4312288E-02   4.8750000E+02  -1.0000000E+00   9.3770000E-02
       11   -1    0    0    0    0  0.00000000000E+00  0.00000000000E+00  2.49833191760E+02  2.49833191760E+02  0.00000000000E+00  0.0000E+00  9.0
      -11   -1    0    0    0    0  0.00000000000E+00  0.00000000000E+00 -2.37791941700E+02  2.37791941700E+02  0.00000000000E+00  0.0000E+00  9.0
  3000025    2    1    2    0    0 -1.53009036076E+02  3.60665881227E+01 -8.94259228914E+01  2.41430596785E+02  1.59934903880E+02  4.5107E-13  9.0
 -3000025    2    1    2    0    0  1.53009036076E+02 -3.60665881227E+01  1.01467172953E+02  2.46194536672E+02  1.60011245856E+02  2.3389E-12  9.0
        4    1    3    3  500    0 -1.29528520961E+02  3.73182828407E+01 -7.15758787120E+01  1.52628810904E+02  1.46817165330E+00  0.0000E+00  9.0
       -3    1    3    3    0  500 -7.32360641691E+00 -7.93599140392E+00  1.47757221266E+01  1.83023805795E+01  2.00000000000E-01  0.0000E+00  9.0
  3000022    1    3    3    0    0 -1.61569086989E+01  6.68429668667E+00 -3.26257663060E+01  7.04994053021E+01  6.00000000000E+01  0.0000E+00  9.0
       -2    1    4    4    0  504  1.63856759164E+01  1.06539851235E+01  4.66623668617E+01  5.05902585918E+01  3.00000000000E-03  0.0000E+00  9.0
        1    1    4    4  504    0  9.96068298328E+01  3.17828250627E+00  1.60721372991E+01  1.00945211137E+02  5.00000000000E-03  0.0000E+00  9.0
  3000022    1    4    4    0    0  3.70165303272E+01 -4.98988557535E+01  3.87326687925E+01  9.46590669443E+01  6.00000000000E+01  0.0000E+00  9.0
</event>
<event>
10    1   3.4312288E-02   4.5800000E+02  -1.0000000E+00   9.4470000E-02
       11   -1    0    0    0    0  0.00000000000E+00  0.00000000000E+00  2.49041757870E+02  2.49041757870E+02  0.00000000000E+00  0.0000E+00  9.0
      -11   -1    0    0    0    0  0.00000000000E+00  0.00000000000E+00 -2.10538361090E+02  2.10538361090E+02  0.00000000000E+00  0.0000E+00  9.0
  3000025    2    1    2    0    0  9.15570079705E+00 -1.57634346755E+02  6.40322018995E+01  2.33715145291E+02  1.59969472476E+02  4.3032E-13  9.0
 -3000025    2    1    2    0    0 -9.15570079705E+00  1.57634346755E+02 -2.55288051185E+01  2.25864973676E+02  1.59470537432E+02  2.7814E-12  9.0
        2    1    3    3  500    0 -5.19738483916E+01 -3.34234882150E+01  7.33614579670E+00  6.22272410222E+01  3.00000000000E-03  0.0000E+00  9.0
       -1    1    3    3    0  500  1.96316497617E+01 -4.63182745891E+01 -7.00150887853E-01  5.03117726734E+01  5.00000000000E-03  0.0000E+00  9.0
  3000022    1    3    3    0    0  4.14978994270E+01 -7.78925839527E+01  5.73962069919E+01  1.21176131597E+02  6.00000000000E+01  0.0000E+00  9.0
       -2    1    4    4    0  504  4.22862774191E+01  2.45258417759E+01 -3.90691424928E+01  6.25783035637E+01  3.00000000000E-03  0.0000E+00  9.0
        1    1    4    4  504    0 -1.13969850085E+01  5.03908764130E+01  1.40202554628E+01  5.35322265667E+01  5.00000000000E-03  0.0000E+00  9.0
  3000022    1    4    4    0    0 -4.00449932074E+01  8.27176285667E+01 -4.79918088481E-01  1.09754443546E+02  6.00000000000E+01  0.0000E+00  9.0
</event>
<event>
10    1   3.4312288E-02   4.6700000E+02  -1.0000000E+00   9.4250000E-02
       11   -1    0    0    0    0  0.00000000000E+00  0.00000000000E+00  2.49999885190E+02  2.49999885190E+02  0.00000000000E+00  0.0000E+00  9.0
      -11   -1    0    0    0    0  0.00000000000E+00  0.00000000000E+00 -2.18069727460E+02  2.18069727460E+02  0.00000000000E+00  0.0000E+00  9.0
  3000025    2    1    2    0    0 -1.67573399733E+02  2.39591373009E+01  6.64899803378E+00  2.33046793237E+02  1.60036602391E+02  2.2831E-12  9.0
 -3000025    2    1    2    0    0  1.67573399733E+02 -2.39591373009E+01  2.52811597042E+01  2.35022819420E+02  1.61064285470E+02  4.6188E-13  9.0
       14    1    3    3    0    0 -4.92311771715E+01  1.58376625751E+01 -3.76466615775E+01  6.39672688917E+01  0.00000000000E+00  0.0000E+00  9.0
      -13    1    3    3    0    0 -6.84090501612E+01  3.38650919257E+01  4.13922958172E+01  8.68330347311E+01  1.05700000000E-01  0.0000E+00  9.0
  3000022    1    3    3    0    0 -4.99331724003E+01 -2.57436171999E+01  2.90336379471E+00  8.22464896140E+01  6.00000000000E+01  0.0000E+00  9.0
       -4    1    4    4    0  500  7.94326333071E+01  1.72420456604E+00 -1.08709660110E-01  7.94649826105E+01  1.46817165330E+00  0.0000E+00  9.0
        3    1    4    4  500    0  5.13380001787E+01 -3.25546728395E+01  5.19984195293E+01  7.99954537432E+01  2.00000000000E-01  0.0000E+00  9.0
  3000022    1    4    4    0    0  3.68027662465E+01  6.87133097325E+00 -2.66085501651E+01  7.55623830661E+01  6.00000000000E+01  0.0000E+00  9.0
</event>
<event>
10    1   3.4312288E-02   4.6080000E+02  -1.0000000E+00   9.4400000E-02
       11   -1    0    0    0    0  0.00000000000E+00  0.00000000000E+00  2.49999248760E+02  2.49999248760E+02  0.00000000000E+00  0.0000E+00  9.0
      -11   -1    0    0    0    0  0.00000000000E+00  0.00000000000E+00 -2.12316531960E+02  2.12316531960E+02  0.00000000000E+00  0.0000E+00  9.0
  3000025    2    1    2    0    0 -1.64506408759E+02 -1.01524896489E+01  3.67388565201E+01  2.32629828188E+02  1.60004568108E+02  1.7865E-13  9.0
 -3000025    2    1    2    0    0  1.64506408759E+02  1.01524896489E+01  9.43860281281E-01  2.29685952521E+02  1.59966603840E+02  6.7959E-14  9.0
       14    1    3    3    0    0 -1.26539588455E+02 -1.54464995611E+01  1.54069847068E+01  1.28406530102E+02  0.00000000000E+00  0.0000E+00  9.0
      -13    1    3    3    0    0 -1.05372428101E+01  2.32852571276E+01  2.49875398714E+01  3.57438806910E+01  1.05700000000E-01  0.0000E+00  9.0
  3000022    1    3    3    0    0 -2.74295774952E+01 -1.79912472165E+01 -3.65566805744E+00  6.84794173961E+01  6.00000000000E+01  0.0000E+00  9.0
       -4    1    4    4    0  500  4.09423891804E+01  5.01236099579E+01  9.11646682185E-01  6.47428925419E+01  1.46817165330E+00  0.0000E+00  9.0
        3    1    4    4  500    0  3.23604394444E+01 -2.50052457620E+01  3.00348964589E+01  5.07404706516E+01  2.00000000000E-01  0.0000E+00  9.0
  3000022    1    4    4    0    0  9.12035801338E+01 -1.49658745470E+01 -3.00026828598E+01  1.14202589327E+02  6.00000000000E+01  0.0000E+00  9.0
</event>
<event>
10    1   3.4312288E-02   4.9970000E+02  -1.0000000E+00   9.3500000E-02
       11   -1    0    0    0    0  0.00000000000E+00  0.00000000000E+00  2.49999999590E+02  2.49999999590E+02  0.00000000000E+00  0.0000E+00  9.0
      -11   -1    0    0    0    0  0.00000000000E+00  0.00000000000E+00 -2.49656652230E+02  2.49656652230E+02  0.00000000000E+00  0.0000E+00  9.0
  3000025    2    1    2    0    0  1.68548305398E+02 -8.88156876246E+01  2.32586747710E+01  2.49899830300E+02  1.60038125492E+02  1.8785E-15  9.0
 -3000025    2    1    2    0    0 -1.68548305398E+02  8.88156876246E+01 -2.29153274070E+01  2.49756821509E+02  1.59864317593E+02  1.4663E-12  9.0
        2    1    3    3  500    0  7.63008441030E+00 -1.71086605582E+01  4.76256008968E+01  5.11773614403E+01  3.00000000000E-03  0.0000E+00  9.0
       -1    1    3    3    0  500  7.96401310773E+01 -4.67302504551E+01 -2.43774498265E+00  9.23699594630E+01  5.00000000000E-03  0.0000E+00  9.0
  3000022    1    3    3    0    0  8.12780899104E+01 -2.49767766114E+01 -2.19291811434E+01  1.06352509397E+02  6.00000000000E+01  0.0000E+00  9.0
       -4    1    4    4    0  504 -1.96326326915E+01  1.46863461139E+01  3.47555898864E+01  4.25586135222E+01  1.46817165330E+00  0.0000E+00  9.0
        3    1    4    4  504    0 -3.72475325332E+00  1.26529763363E+01 -3.44728068075E+01  3.69105134908E+01  2.00000000000E-01  0.0000E+00  9.0
  3000022    1    4    4    0    0 -1.45190919453E+02  6.14763651744E+01 -2.31981104852E+01  1.70287694496E+02  6.00000000000E+01  0.0000E+00  9.0
</event>
<event>
10    1   3.4312288E-02   4.6520000E+02  -1.0000000E+00   9.4300000E-02
       11   -1    0    0    0    0  0.00000000000E+00  0.00000000000E+00  2.26227440730E+02  2.26227440730E+02  0.00000000000E+00  0.0000E+00  9.0
      -11   -1    0    0    0    0  0.00000000000E+00  0.00000000000E+00 -2.39112027110E+02  2.39112027110E+02  0.00000000000E+00  0.0000E+00  9.0
  3000025    2    1    2    0    0  8.84261237600E+01 -1.33318156343E+02  4.67783965982E+01  2.31340196347E+02  1.60428045813E+02  2.9449E-12  9.0
 -3000025    2    1    2    0    0 -8.84261237600E+01  1.33318156343E+02 -5.96629829842E+01  2.33999271493E+02  1.60009616420E+02  1.3116E-12  9.0
       14    1    3    3    0    0  1.46487870213E+01 -1.90806983937E+01  5.16402385372E+01  5.69681862847E+01  0.00000000000E+00  0.0000E+00  9.0
      -13    1    3    3    0    0  6.76967724097E+01 -7.80820684844E+01  4.47822928344E+00  1.03439490155E+02  1.05700000000E-01  0.0000E+00  9.0
  3000022    1    3    3    0    0  6.08056432881E+00 -3.61553894650E+01 -9.34007122247E+00  7.09325199070E+01  6.00000000000E+01  0.0000E+00  9.0
       -4    1    4    4    0  500  7.86906230920E+00  1.79951316206E+01 -3.87296364762E+01  4.34498236274E+01  1.46817165330E+00  0.0000E+00  9.0
        3    1    4    4  500    0 -6.17797348834E+01  1.08998658225E+01  3.80155302761E+00  6.28493000966E+01  2.00000000000E-01  0.0000E+00  9.0
  3000022    1    4    4    0    0 -3.45154511858E+01  1.04423158900E+02 -2.47348995355E+01  1.27700147769E+02  6.00000000000E+01  0.0000E+00  9.0
</event>
<event>
10    1   3.4312288E-02   4.7630000E+02  -1.0000000E+00   9.4030000E-02
       11   -1    0    0    0    0  0.00000000000E+00  0.00000000000E+00  2.50000000000E+02  2.50000000000E+02  0.00000000000E+00  0.0000E+00  9.0
      -11   -1    0    0    0    0  0.00000000000E+00  0.00000000000E+00 -2.26840012840E+02  2.26840012840E+02  0.00000000000E+00  0.0000E+00  9.0
  3000025    2    1    2    0    0  1.01416289292E+02  1.38203819590E+02 -3.03549272034E+01  2.36321692893E+02  1.59815398017E+02  8.4706E-14  9.0
 -3000025    2    1    2    0    0 -1.01416289292E+02 -1.38203819590E+02  5.35149143664E+01  2.40518319949E+02  1.59998927147E+02  2.0206E-12  9.0
        2    1    3    3  500    0  8.14535617113E+01  1.07962373692E+02 -3.31634591123E+01  1.39249315539E+02  3.00000000000E-03  0.0000E+00  9.0
       -1    1    3    3    0  500 -1.43177355122E+00  1.82792584172E+01  2.27885615751E+01  2.92489286547E+01  5.00000000000E-03  0.0000E+00  9.0
  3000022    1    3    3    0    0  2.13945011330E+01  1.19621874802E+01 -1.99800296669E+01  6.78234486998E+01  6.00000000000E+01  0.0000E+00  9.0
       -4    1    4    4    0  504 -2.76831122878E+00 -1.27638250287E+01  3.89377076791E+01  4.10959777074E+01  1.46817165330E+00  0.0000E+00  9.0
        3    1    4    4  504    0 -1.19938640008E+01 -5.99111552310E+01 -2.93307071668E+01  6.77755831969E+01  2.00000000000E-01  0.0000E+00  9.0
  3000022    1    4    4    0    0 -8.66541140613E+01 -6.55288393304E+01  4.39079138541E+01  1.31646759044E+02  6.00000000000E+01  0.0000E+00  9.0
</event>
<event>
10    1   3.4312288E-02   4.9370000E+02  -1.0000000E+00   9.3630000E-02
       11   -1    0    0    0    0  0.00000000000E+00  0.00000000000E+00  2.48076011850E+02  2.48076011850E+02  0.00000000000E+00  0.0000E+00  9.0
      -11   -1    0    0    0    0  0.00000000000E+00  0.00000000000E+00 -2.45661493260E+02  2.45661493260E+02  0.00000000000E+00  0.0000E+00  9.0
  3000025    2    1    2    0    0  1.37187963627E+02 -1.28320842037E+02 -6.29275565691E+00  2.46784526023E+02  1.59925694138E+02  8.7542E-13  9.0
 -3000025    2    1    2    0    0 -1.37187963627E+02  1.28320842037E+02  8.70727424751E+00  2.46952979079E+02  1.60072425439E+02  2.3022E-12  9.0
        4    1    3    3  500    0  4.71263138908E+01 -7.60927734064E+01  1.92042456192E+01  9.15530349219E+01  1.46817165330E+00  0.0000E+00  9.0
       -3    1    3    3    0  500  8.11507105792E+01 -1.92963608292E+01 -2.12613746439E+01  8.60806216318E+01  2.00000000000E-01  0.0000E+00  9.0
  3000022    1    3    3    0    0  8.91093915639E+00 -3.29317078011E+01 -4.23562663188E+00  6.91508694689E+01  6.00000000000E+01  0.0000E+00  9.0
       -2    1    4    4    0  504  1.74175749205E+01  2.74708868255E+01  2.94679803689E+01  4.38905845839E+01  3.00000000000E-03  0.0000E+00  9.0
        1    1    4    4  504    0 -4.76631431594E+01  4.83622176161E+01 -1.50790358183E+01  6.95561403097E+01  5.00000000000E-03  0.0000E+00  9.0
  3000022    1    4    4    0    0 -1.06942395388E+02  5.24877375958E+01 -5.68167030313E+00  1.33506254186E+02  6.00000000000E+01  0.0000E+00  9.0
</event>
<event>
10    1   3.4312288E-02   5.0000000E+02  -1.0000000E+00   9.3490000E-02
       11   -1    0    0    0    0  0.00000000000E+00  0.00000000000E+00  2.50000000000E+02  2.50000000000E+02  0.00000000000E+00  0.0000E+00  9.0
      -11   -1    0    0    0    0  0.00000000000E+00  0.00000000000E+00 -2.49999742000E+02  2.49999742000E+02  0.00000000000E+00  0.0000E+00  9.0
  3000025    2    1    2    0    0 -7.41768973490E+01  1.13618968704E+02  1.35665135443E+02  2.50142394538E+02  1.60482729354E+02  1.5381E-12  9.0
 -3000025    2    1    2    0    0  7.41768973490E+01 -1.13618968704E+02 -1.35664877443E+02  2.49857347464E+02  1.60038285920E+02  6.1617E-13  9.0
        4    1    3    3  500    0 -5.73168652234E+01  1.13501246334E+02  8.98443119667E+01  1.55698143467E+02  1.46817165330E+00  0.0000E+00  9.0
       -3    1    3    3    0  500 -1.70681539084E+01 -1.26417047598E+01  1.20260586981E+01  2.44090283478E+01  2.00000000000E-01  0.0000E+00  9.0
  3000022    1    3    3    0    0  2.08121783293E-01  1.27594271282E+01  3.37947647775E+01  7.00352227217E+01  6.00000000000E+01  0.0000E+00  9.0
      -14    1    4    4    0    0 -2.88409848367E+01 -5.98629381925E+01 -5.62645979994E+01  8.70693905079E+01  0.00000000000E+00  0.0000E+00  9.0
       13    1    4    4    0    0  3.30599978248E+01 -7.35744783122E+00 -2.23714939873E+00  3.39427680764E+01  1.05700000000E-01  0.0000E+00  9.0
  3000022    1    4    4    0    0  6.99578843609E+01 -4.63985826810E+01 -7.71631300445E+01  1.28845188879E+02  6.00000000000E+01  0.0000E+00  9.0
</event>
<event>
10    1   3.4312288E-02   4.9370000E+02  -1.0000000E+00   9.3630000E-02
       11   -1    0    0    0    0  0.00000000000E+00  0.00000000000E+00  2.43714672540E+02  2.43714672540E+02  0.00000000000E+00  0.0000E+00  9.0
      -11   -1    0    0    0    0  0.00000000000E+00  0.00000000000E+00 -2.49998472630E+02  2.49998472630E+02  0.00000000000E+00  0.0000E+00  9.0
  3000025    2    1    2    0    0  9.38049397908E+01 -1.61997603126E+02  1.43428589849E+01  2.46646801088E+02  1.59957296600E+02  2.8653E-13  9.0
 -3000025    2    1    2    0    0 -9.38049397908E+01  1.61997603126E+02 -2.06266590699E+01  2.47066344081E+02  1.59917882568E+02  2.6414E-12  9.0
        4    1    3    3  500    0  9.45827896874E+01 -7.29314077147E+01  3.96325797923E+01  1.25848286620E+02  1.46817165330E+00  0.0000E+00  9.0
       -3    1    3    3    0  500 -1.56841313448E+01 -1.69764684103E+01 -3.72278721789E+00  2.34113562272E+01  2.00000000000E-01  0.0000E+00  9.0
  3000022    1    3    3    0    0  1.49062814483E+01 -7.20897270012E+01 -2.15669335901E+01  9.73871582407E+01  6.00000000000E+01  0.0000E+00  9.0
       -2    1    4    4    0  504 -3.66477161383E+01  1.05078917374E+01  2.51614960210E+01  4.56790080664E+01  3.00000000000E-03  0.0000E+00  9.0
        1    1    4    4  504    0 -6.08801702581E+01  6.55137494062E+01 -3.45627584949E+01  9.58802940739E+01  5.00000000000E-03  0.0000E+00  9.0
  3000022    1    4    4    0    0  3.72294660556E+00  8.59759619826E+01 -1.12253965963E+01  1.05507041940E+02  6.00000000000E+01  0.0000E+00  9.0
</event>
<event>
10    1   3.4312288E-02   4.9980000E+02  -1.0000000E+00   9.3490000E-02
       11   -1    0    0    0    0  0.00000000000E+00  0.00000000000E+00  2.50000000000E+02  2.50000000000E+02  0.00000000000E+00  0.0000E+00  9.0
      -11   -1    0    0    0    0  0.00000000000E+00  0.00000000000E+00 -2.49849349580E+02  2.49849349580E+02  0.00000000000E+00  0.0000E+00  9.0
  3000025    2    1    2    0    0  1.04742728926E+02 -1.58365179783E+02  2.39615130504E+01  2.50401462437E+02  1.61481171819E+02  3.9923E-13  9.0
 -3000025    2    1    2    0    0 -1.04742728926E+02  1.58365179783E+02 -2.38108626294E+01  2.49447887139E+02  1.60021004209E+02  1.9496E-12  9.0
        4    1    3    3  500    0  5.76364097842E+01 -9.53772618831E+01 -1.74152051900E+01  1.12801696428E+02  1.46817165330E+00  0.0000E+00  9.0
       -3    1    3    3    0  500  1.25553297971E+01 -4.33884638243E+01  4.72949121061E+01  6.53991116949E+01  2.00000000000E-01  0.0000E+00  9.0
  3000022    1    3    3    0    0  3.45509893452E+01 -1.95994540760E+01 -5.91819386577E+00  7.22006543145E+01  6.00000000000E+01  0.0000E+00  9.0
       -2    1    4    4    0  504  1.37723281807E+00  1.10858461670E+02 -5.26810561031E+00  1.10992108907E+02  3.00000000000E-03  0.0000E+00  9.0
        1    1    4    4  504    0 -3.41173979748E+01  1.29727207075E+01  1.70143358201E+00  3.65401591179E+01  5.00000000000E-03  0.0000E+00  9.0
  3000022    1    4    4    0    0 -7.20025637696E+01  3.45339974068E+01 -2.02441906011E+01  1.01915619114E+02  6.00000000000E+01  0.0000E+00  9.0
</event>
<event>
10    1   3.4312288E-02   4.9930000E+02  -1.0000000E+00   9.3510000E-02
       11   -1    0    0    0    0  0.00000000000E+00  0.00000000000E+00  2.49461226810E+02  2.49461226810E+02  0.00000000000E+00  0.0000E+00  9.0
      -11   -1    0    0    0    0  0.00000000000E+00  0.00000000000E+00 -2.49837820410E+02  2.49837820410E+02  0.00000000000E+00  0.0000E+00  9.0
  3000025    2    1    2    0    0  1.33595271237E+02 -1.27583881695E+02  5.04659602592E+01  2.49654855915E+02  1.60173002006E+02  1.3908E-13  9.0
 -3000025    2    1    2    0    0 -1.33595271237E+02  1.27583881695E+02 -5.08425538632E+01  2.49644191301E+02  1.60037225675E+02  7.3401E-13  9.0
        4    1    3    3  500    0  6.89959879353E+01 -5.29900812257E+01  4.27465600141E+01  9.69423487466E+01  1.46817165330E+00  0.0000E+00  9.0
       -3    1    3    3    0  500  3.63448109025E+01 -3.98329472753E+00 -3.14433844566E+01  4.82238358337E+01  2.00000000000E-01  0.0000E+00  9.0
  3000022    1    3    3    0    0  2.82544723988E+01 -7.06105057414E+01  3.91627847017E+01  1.04488671334E+02  6.00000000000E+01  0.0000E+00  9.0
       -4    1    4    4    0  504 -2.03574209440E+01  2.71417645932E+01  3.70522464821E+01  5.02605657559E+01  1.46817165330E+00  0.0000E+00  9.0
        3    1    4    4  504    0 -7.08324163311E+01  6.75364660999E+01 -4.01445799349E+01  1.05782951153E+02  2.00000000000E-01  0.0000E+00  9.0
  3000022    1    4    4    0    0 -4.24054339620E+01  3.29056510023E+01 -4.77502204105E+01  9.36006743920E+01  6.00000000000E+01  0.0000E+00  9.0
</event>
<event>
10    1   3.4312288E-02   4.9740000E+02  -1.0000000E+00   9.3550000E-02
       11   -1    0    0    0    0  0.00000000000E+00  0.00000000000E+00  2.47367677790E+02  2.47367677790E+02  0.00000000000E+00  0.0000E+00  9.0
      -11   -1    0    0    0    0  0.00000000000E+00  0.00000000000E+00 -2.49999750450E+02  2.49999750450E+02  0.00000000000E+00  0.0000E+00  9.0
  3000025    2    1    2    0    0  3.48569687121E+01  1.16773364963E+02  1.45537473710E+02  2.47557133908E+02  1.58909884093E+02  1.8626E-12  9.0
 -3000025    2    1    2    0    0 -3.48569687121E+01 -1.16773364963E+02 -1.48169546370E+02  2.49810294339E+02  1.59999817667E+02  2.1816E-12  9.0
        4    1    3    3  500    0  4.82087415531E+01  5.40319133430E+01  8.88138798236E+00  7.29696169796E+01  1.46817165330E+00  0.0000E+00  9.0
       -3    1    3    3    0  500 -1.72657595884E+01 -4.97571029314E+00  2.58663952679E+01  3.14956274940E+01  2.00000000000E-01  0.0000E+00  9.0
  3000022    1    3    3    0    0  3.91398674739E+00  6.77171619134E+01  1.10789690460E+02  1.43091889435E+02  6.00000000000E+01  0.0000E+00  9.0
      -14    1    4    4    0    0  2.35956991085E+01 -4.73151499002E+01 -6.51040339810E+01  8.38690387873E+01  0.00000000000E+00  0.0000E+00  9.0
       13    1    4    4    0    0 -4.91471953012E+01 -1.33330288681E+01 -6.27218144443E+01  8.07914206116E+01  1.05700000000E-01  0.0000E+00  9.0
  3000022    1    4    4    0    0 -9.30547251951E+00 -5.61251861950E+01 -2.03436979446E+01  8.51498349399E+01  6.00000000000E+01  0.0000E+00  9.0
</event>
<event>
10    1   3.4312288E-02   4.9830000E+02  -1.0000000E+00   9.3530000E-02
       11   -1    0    0    0    0  0.00000000000E+00  0.00000000000E+00  2.48349114220E+02  2.48349114220E+02  0.00000000000E+00  0.0000E+00  9.0
      -11   -1    0    0    0    0  0.00000000000E+00  0.00000000000E+00 -2.49999991540E+02  2.49999991540E+02  0.00000000000E+00  0.0000E+00  9.0
  3000025    2    1    2    0    0  1.29194564060E+02 -4.59140562750E+01 -1.33722350844E+02  2.49607310275E+02  1.60071253762E+02  5.1232E-14  9.0
 -3000025    2    1    2    0    0 -1.29194564060E+02  4.59140562750E+01  1.32071473524E+02  2.48741795483E+02  1.60094568163E+02  1.0780E-12  9.0
       14    1    3    3    0    0  5.61979695788E+01  2.49950075983E+01 -5.18221394982E+01  8.04269627165E+01  0.00000000000E+00  0.0000E+00  9.0
      -13    1    3    3    0    0  6.17466900323E+01 -5.10571672175E+01 -2.65089690803E+01  8.43932738339E+01  1.05700000000E-01  0.0000E+00  9.0
  3000022    1    3    3    0    0  1.12499044481E+01 -1.98518966560E+01 -5.53912422650E+01  8.47870737235E+01  6.00000000000E+01  0.0000E+00  9.0
       -4    1    4    4    0  500 -3.06606643717E+01  4.14660133338E+01  3.10877343697E+01  6.02337891699E+01  1.46817165330E+00  0.0000E+00  9.0
        3    1    4    4  500    0 -1.39924998051E+01 -2.55074468286E+01  7.06645670133E+01  7.64195061859E+01  2.00000000000E-01  0.0000E+00  9.0
  3000022    1    4    4    0    0 -8.45413998840E+01  2.99554897693E+01  3.03191721415E+01  1.12088500128E+02  6.00000000000E+01  0.0000E+00  9.0
</event>
<event>
10    1   3.4312288E-02   4.8920000E+02  -1.0000000E+00   9.3730000E-02
       11   -1    0    0    0    0  0.00000000000E+00  0.00000000000E+00  2.43099682500E+02  2.43099682500E+02  0.00000000000E+00  0.0000E+00  9.0
      -11   -1    0    0    0    0  0.00000000000E+00  0.00000000000E+00 -2.46088713790E+02  2.46088713790E+02  0.00000000000E+00  0.0000E+00  9.0
  3000025    2    1    2    0    0 -2.43103562274E+01  1.81995111701E+02  2.07303128930E+01  2.44524975465E+02  1.60154624193E+02  8.7962E-13  9.0
 -3000025    2    1    2    0    0  2.43103562274E+01 -1.81995111701E+02 -2.37193441780E+01  2.44663420823E+02  1.59951142845E+02  9.4826E-13  9.0
        2    1    3    3  500    0 -1.56712993217E+01  1.59250544281E+01  3.01052309641E+01  3.74902910281E+01  3.00000000000E-03  0.0000E+00  9.0
       -1    1    3    3    0  500  4.14579853950E+01  6.30059811878E+01 -1.75067535400E+01  7.74274154480E+01  5.00000000000E-03  0.0000E+00  9.0
  3000022    1    3    3    0    0 -5.00970423007E+01  1.03064076086E+02  8.13183546938E+00  1.29607268989E+02  6.00000000000E+01  0.0000E+00  9.0
       -4    1    4    4    0  504 -2.91509147925E+01 -8.32943682555E+01 -1.83826806744E+01  9.01543459468E+01  1.46817165330E+00  0.0000E+00  9.0
        3    1    4    4  504    0  2.07257346684E+01 -3.30520307383E+00 -2.79936823078E+01  3.49880936042E+01  2.00000000000E-01  0.0000E+00  9.0
  3000022    1    4    4    0    0  3.27355363506E+01 -9.53955403726E+01  2.26570188042E+01  1.19520981272E+02  6.00000000000E+01  0.0000E+00  9.0
</event>
<event>
10    1   3.4312288E-02   4.9350000E+02  -1.0000000E+00   9.3640000E-02
       11   -1    0    0    0    0  0.00000000000E+00  0.00000000000E+00  2.44071329360E+02  2.44071329360E+02  0.00000000000E+00  0.0000E+00  9.0
      -11   -1    0    0    0    0  0.00000000000E+00  0.00000000000E+00 -2.49450697300E+02  2.49450697300E+02  0.00000000000E+00  0.0000E+00  9.0
  3000025    2    1    2    0    0 -1.72507002636E+02 -6.35472226667E+01 -4.13689672243E+01  2.47171172837E+02  1.59953998903E+02  8.9862E-13  9.0
 -3000025    2    1    2    0    0  1.72507002636E+02  6.35472226667E+01  3.59895992843E+01  2.46350853825E+02  1.59989301069E+02  1.8596E-12  9.0
        4    1    3    3  500    0 -2.73545395623E+01  3.08306648418E+01 -2.67223922118E+00  4.13291316110E+01  1.46817165330E+00  0.0000E+00  9.0
       -3    1    3    3    0  500 -1.04754864023E+02 -4.35359132825E+01 -1.60202630651E+01  1.14567212196E+02  2.00000000000E-01  0.0000E+00  9.0
  3000022    1    3    3    0    0 -4.03975990518E+01 -5.08419742261E+01 -2.26764649382E+01  9.12748290300E+01  6.00000000000E+01  0.0000E+00  9.0
      -14    1    4    4    0    0  1.86642622858E+01  3.07747551588E+01  3.11904014003E+01  4.76264777332E+01  0.00000000000E+00  0.0000E+00  9.0
       13    1    4    4    0    0  1.11837650721E+02  2.79644789221E+01 -2.75262587451E+01  1.18521636393E+02  1.05700000000E-01  0.0000E+00  9.0
  3000022    1    4    4    0    0  4.20050896291E+01  4.80798858563E+00  3.23254566290E+01  8.02027396992E+01  6.00000000000E+01  0.0000E+00  9.0
</event>
<event>
10    1   3.4312288E-02   4.9900000E+02  -1.0000000E+00   9.3510000E-02
       11   -1    0    0    0    0  0.00000000000E+00  0.00000000000E+00  2.49999977750E+02  2.49999977750E+02  0.00000000000E+00  0.0000E+00  9.0
      -11   -1    0    0    0    0  0.00000000000E+00  0.00000000000E+00 -2.48992637340E+02  2.48992637340E+02  0.00000000000E+00  0.0000E+00  9.0
  3000025    2    1    2    0    0  1.60189360863E+02  1.04779563780E+02 -3.47756144594E+00  2.49431349971E+02  1.59889075909E+02  2.4097E-13  9.0
 -3000025    2    1    2    0    0 -1.60189360863E+02 -1.04779563780E+02  4.48490186174E+00  2.49561265132E+02  1.60066618600E+02  1.1943E-12  9.0
        4    1    3    3  500    0  9.09652166076E+01  1.36523227104E+01 -1.54623015949E+01  9.32860913881E+01  1.46817165330E+00  0.0000E+00  9.0
       -3    1    3    3    0  500  2.24711490762E+01  3.17569590593E+01  3.98693200627E+01  5.57051135153E+01  2.00000000000E-01  0.0000E+00  9.0
  3000022    1    3    3    0    0  4.67529951795E+01  5.93702820105E+01 -2.78845799137E+01  1.00440145068E+02  6.00000000000E+01  0.0000E+00  9.0
       -4    1    4    4    0  504 -1.04995325363E+02 -5.47112356817E+01 -1.17260313279E+01  1.18983162660E+02  1.46817165330E+00  0.0000E+00  9.0
        3    1    4    4  504    0 -1.59901853649E+01 -3.26361450520E+01  3.90652618178E+01  5.33567115999E+01  2.00000000000E-01  0.0000E+00  9.0
  3000022    1    4    4    0    0 -3.92038501356E+01 -1.74321830463E+01 -2.28543286282E+01  7.72213908724E+01  6.00000000000E+01  0.0000E+00  9.0
</event>
<event>
10    1   3.4312288E-02   4.8540000E+02  -1.0000000E+00   9.3820000E-02
       11   -1    0    0    0    0  0.00000000000E+00  0.00000000000E+00  2.40264310980E+02  2.40264310980E+02  0.00000000000E+00  0.0000E+00  9.0
      -11   -1    0    0    0    0  0.00000000000E+00  0.00000000000E+00 -2.45155020100E+02  2.45155020100E+02  0.00000000000E+00  0.0000E+00  9.0
  3000025    2    1    2    0    0  5.56709982134E+01 -1.65239755589E+02  5.12804079416E+01  2.42208897119E+02  1.60100071004E+02  1.5000E-12  9.0
 -3000025    2    1    2    0    0 -5.56709982134E+01  1.65239755589E+02 -5.61711170566E+01  2.43210433961E+02  1.59977135637E+02  1.4657E-13  9.0
        4    1    3    3  500    0 -8.32587929176E+00 -1.82355377850E+00  4.38071548390E+01  4.46527485991E+01  1.46817165330E+00  0.0000E+00  9.0
       -3    1    3    3    0  500  2.78137600199E+00 -7.10386371466E+01 -2.54523691226E+00  7.11388940809E+01  2.00000000000E-01  0.0000E+00  9.0
  3000022    1    3    3    0    0  6.12155015033E+01 -9.23775646657E+01  1.00184900149E+01  1.26417254440E+02  6.00000000000E+01  0.0000E+00  9.0
       -2    1    4    4    0  504  1.96630660203E+01  3.06138287286E+01  1.54258424291E+01  3.95196065060E+01  3.00000000000E-03  0.0000E+00  9.0
        1    1    4    4  504    0 -2.29453220549E+01  2.44830958414E+01 -5.81032203208E+01  6.70961550525E+01  5.00000000000E-03  0.0000E+00  9.0
  3000022    1    4    4    0    0 -5.23887421781E+01  1.10142831019E+02 -1.34937391648E+01  1.36594672402E+02  6.00000000000E+01  0.0000E+00  9.0
</event>
<event>
10    1   3.4312288E-02   4.9710000E+02  -1.0000000E+00   9.3550000E-02
       11   -1    0    0    0    0  0.00000000000E+00  0.00000000000E+00  2.50000000000E+02  2.50000000000E+02  0.00000000000E+00  0.0000E+00  9.0
      -11   -1    0    0    0    0  0.00000000000E+00  0.00000000000E+00 -2.47147491970E+02  2.47147491970E+02  0.00000000000E+00  0.0000E+00  9.0
  3000025    2    1    2    0    0  3.50710151765E+01  1.85171659150E+02 -1.83773588793E+01  2.47903940485E+02  1.60000365408E+02  2.4004E-13  9.0
 -3000025    2    1    2    0    0 -3.50710151765E+01 -1.85171659150E+02  2.12298669093E+01  2.49243551477E+02  1.61719266775E+02  7.5687E-13  9.0
       14    1    3    3    0    0 -1.88161195477E+01  9.39928259935E+00 -2.01482109067E+01  2.91263329473E+01  0.00000000000E+00  0.0000E+00  9.0
      -13    1    3    3    0    0  5.50136801464E+01  1.12829823300E+02 -2.45721480616E+01  1.27909638660E+02  1.05700000000E-01  0.0000E+00  9.0
  3000022    1    3    3    0    0 -1.12654542221E+00  6.29425532498E+01  2.63430000900E+01  9.08679688776E+01  6.00000000000E+01  0.0000E+00  9.0
       -4    1    4    4    0  500 -3.03151501039E+01 -1.22630557930E+02  2.38657250962E+01  1.28565121345E+02  1.46817165330E+00  0.0000E+00  9.0
        3    1    4    4  500    0 -2.51612719076E+01  7.30418157601E+00  1.79727166439E+00  2.62623467714E+01  2.00000000000E-01  0.0000E+00  9.0
  3000022    1    4    4    0    0  2.04054068350E+01 -6.98452827954E+01 -4.43312985186E+00  9.44160833606E+01  6.00000000000E+01  0.0000E+00  9.0
</event>
<event>
10    1   3.4312288E-02   4.9060000E+02  -1.0000000E+00   9.3700000E-02
       11   -1    0    0    0    0  0.00000000000E+00  0.00000000000E+00  2.42891512740E+02  2.42891512740E+02  0.00000000000E+00  0.0000E+00  9.0
      -11   -1    0    0    0    0  0.00000000000E+00  0.00000000000E+00 -2.47737309360E+02  2.47737309360E+02  0.00000000000E+00  0.0000E+00  9.0
  3000025    2    1    2    0    0 -1.51530837300E+01 -1.60451799305E+02  9.00184204580E+01  2.44520077720E+02  1.60350729776E+02  4.0264E-12  9.0
 -3000025    2    1    2    0    0  1.51530837300E+01  1.60451799305E+02 -9.48642170720E+01  2.46108744384E+02  1.59987182408E+02  2.1220E-12  9.0
        2    1    3    3  500    0  3.72171277223E+01 -9.47685547371E+01  2.87804504461E+01  1.05804101526E+02  3.00000000000E-03  0.0000E+00  9.0
       -1    1    3    3    0  500 -1.11189297653E+01  1.27646833602E+01  4.22867038450E+00  1.74484789777E+01  5.00000000000E-03  0.0000E+00  9.0
  3000022    1    3    3    0    0 -4.12512816873E+01 -7.84479279288E+01  5.70092996272E+01  1.21267497216E+02  6.00000000000E+01  0.0000E+00  9.0
       -2    1    4    4    0  504  4.87910372216E+00  3.44250198148E+01  2.26546581805E+01  4.14984480271E+01  3.00000000000E-03  0.0000E+00  9.0
        1    1    4    4  504    0 -3.00560463278E+01  6.79933396716E+01 -5.97764317090E+01  9.53922532149E+01  5.00000000000E-03  0.0000E+00  9.0
  3000022    1    4    4    0    0  4.03300263356E+01  5.80334398184E+01 -5.77424435446E+01  1.09218043143E+02  6.00000000000E+01  0.0000E+00  9.0
</event>
<event>
10    1   3.4312288E-02   4.8330000E+02  -1.0000000E+00   9.3870000E-02
       11   -1    0    0    0    0  0.00000000000E+00  0.00000000000E+00  2.49992751320E+02  2.49992751320E+02  0.00000000000E+00  0.0000E+00  9.0
      -11   -1    0    0    0    0  0.00000000000E+00  0.00000000000E+00 -2.33567866060E+02  2.33567866060E+02  0.00000000000E+00  0.0000E+00  9.0
  3000025    2    1    2    0    0  9.47693473402E+01  1.50777932002E+02 -2.47148877602E+01  2.40683410044E+02  1.60007700500E+02  1.6198E-12  9.0
 -3000025    2    1    2    0    0 -9.47693473402E+01 -1.50777932002E+02  4.11397730142E+01  2.42877207333E+02  1.59942623913E+02  2.9951E-12  9.0
        2    1    3    3  500    0 -1.05570094934E+01  3.07420243231E+01 -4.08576537208E+01  5.22098686600E+01  3.00000000000E-03  0.0000E+00  9.0
       -1    1    3    3    0  500  3.68615525836E+01  7.90889872906E+01  1.56640629930E+01  8.86521565670E+01  5.00000000000E-03  0.0000E+00  9.0
  3000022    1    3    3    0    0  6.84648042506E+01  4.09469203892E+01  4.78702967610E-01  9.98213848179E+01  6.00000000000E+01  0.0000E+00  9.0
       -4    1    4    4    0  504 -1.97651447496E+01 -6.09874806291E+01 -4.08988664647E+01  7.60592305151E+01  1.46817165330E+00  0.0000E+00  9.0
        3    1    4    4  504    0 -2.38077148258E+00 -2.16184739733E+01  3.53654832979E+01  4.15184765939E+01  2.00000000000E-01  0.0000E+00  9.0
  3000022    1    4    4    0    0 -7.26234311080E+01 -6.81719773995E+01  4.66731561810E+01  1.25299500224E+02  6.00000000000E+01  0.0000E+00  9.0
</event>
<event>
10    1   3.4312288E-02   4.5790000E+02  -1.0000000E+00   9.4470000E-02
       11   -1    0    0    0    0  0.00000000000E+00  0.00000000000E+00  2.09701375770E+02  2.09701375770E+02  0.00000000000E+00  0.0000E+00  9.0
      -11   -1    0    0    0    0  0.00000000000E+00  0.00000000000E+00 -2.49999981390E+02  2.49999981390E+02  0.00000000000E+00  0.0000E+00  9.0
  3000025    2    1    2    0    0  1.12783442535E+02 -7.75332176280E+01 -1.10419303232E+02  2.37797586333E+02  1.60074247753E+02  2.4767E-12  9.0
 -3000025    2    1    2    0    0 -1.12783442535E+02  7.75332176280E+01  7.01206976170E+01  2.21903770827E+02  1.59977706344E+02  1.4560E-12  9.0
        2    1    3    3  500    0  7.06157966657E+01 -9.65835870121E+00 -6.05964169083E+01  9.35510576245E+01  3.00000000000E-03  0.0000E+00  9.0
       -1    1    3    3    0  500  1.74603308465E+01 -6.50321226448E+01 -4.06438576580E+01  7.86508952224E+01  5.00000000000E-03  0.0000E+00  9.0
  3000022    1    3    3    0    0  2.47073150226E+01 -2.84273628202E+00 -9.17902866642E+00  6.55956334862E+01  6.00000000000E+01  0.0000E+00  9.0
       -2    1    4    4    0  504 -3.58375540983E+00  3.35548425380E+01  7.12816238212E+01  7.88659664506E+01  3.00000000000E-03  0.0000E+00  9.0
        1    1    4    4  504    0 -5.01721850248E+01  1.25628547481E+01  9.43741531766E+00  5.25750730143E+01  5.00000000000E-03  0.0000E+00  9.0
  3000022    1    4    4    0    0 -5.90275020990E+01  3.14155203418E+01 -1.05983415214E+01  9.04627313616E+01  6.00000000000E+01  0.0000E+00  9.0
</event>
<event>
10    1   3.4312288E-02   4.9000000E+02  -1.0000000E+00   9.3710000E-02
       11   -1    0    0    0    0  0.00000000000E+00  0.00000000000E+00  2.40148484070E+02  2.40148484070E+02  0.00000000000E+00  0.0000E+00  9.0
      -11   -1    0    0    0    0  0.00000000000E+00  0.00000000000E+00 -2.49969173210E+02  2.49969173210E+02  0.00000000000E+00  0.0000E+00  9.0
  3000025    2    1    2    0    0 -1.75981048144E+02 -1.19429461852E+01  5.22429259674E+01  2.43786051855E+02  1.59969848709E+02  4.6987E-13  9.0
 -3000025    2    1    2    0    0  1.75981048144E+02  1.19429461852E+01 -6.20636151134E+01  2.46331605419E+02  1.60360232719E+02  3.7460E-13  9.0
        4    1    3    3  500    0  5.56428376109E+00 -1.72449464314E+01  2.76208322122E+01  3.30668312859E+01  1.46817165330E+00  0.0000E+00  9.0
       -3    1    3    3    0  500 -1.11720401341E+02 -1.16962657889E+01  3.20284271098E+01  1.16808008511E+02  2.00000000000E-01  0.0000E+00  9.0
  3000022    1    3    3    0    0 -6.98249305647E+01  1.69982660347E+01 -7.40633335454E+00  9.39112120586E+01  6.00000000000E+01  0.0000E+00  9.0
       -2    1    4    4    0  504  1.17501032482E+02  1.46537278046E+00 -3.25694576431E+01  1.21940188338E+02  3.00000000000E-03  0.0000E+00  9.0
        1    1    4    4  504    0  1.11447749568E+01  3.27526616862E+01  9.31790381481E+00  3.58296834046E+01  5.00000000000E-03  0.0000E+00  9.0
  3000022    1    4    4    0    0  4.73352407050E+01 -2.22750882811E+01 -3.88120612852E+01  8.85617336762E+01  6.00000000000E+01  0.0000E+00  9.0
</event>
<event>
10    1   3.4312288E-02   4.7900000E+02  -1.0000000E+00   9.3970000E-02
       11   -1    0    0    0    0  0.00000000000E+00  0.00000000000E+00  2.42951563290E+02  2.42951563290E+02  0.00000000000E+00  0.0000E+00  9.0
      -11   -1    0    0    0    0  0.00000000000E+00  0.00000000000E+00 -2.36074223400E+02  2.36074223400E+02  0.00000000000E+00  0.0000E+00  9.0
  3000025    2    1    2    0    0 -1.76722587392E+02 -2.46430215289E+01  8.88935707395E+00  2.39815757669E+02  1.59982578904E+02  3.7694E-12  9.0
 -3000025    2    1    2    0    0  1.76722587392E+02  2.46430215289E+01 -2.01201718205E+00  2.39210029019E+02  1.59308626149E+02  1.4811E-12  9.0
       14    1    3    3    0    0 -7.28246206150E+01 -1.49258233026E+01 -2.61538022665E+01  7.88049931284E+01  0.00000000000E+00  0.0000E+00  9.0
      -13    1    3    3    0    0 -7.28898988105E+01  1.20391016112E+00  5.31747474089E+01  9.02327639096E+01  1.05700000000E-01  0.0000E+00  9.0
  3000022    1    3    3    0    0 -3.10080679653E+01 -1.09211083873E+01 -1.81315880684E+01  7.07780006304E+01  6.00000000000E+01  0.0000E+00  9.0
       -2    1    4    4    0  500 -1.37231080267E+01 -1.15337641278E+01  7.21125120030E-01  1.79407758836E+01  3.00000000000E-03  0.0000E+00  9.0
        1    1    4    4  500    0  7.87333823519E+01  3.38254858846E+01  2.91173025245E+01  9.05037365152E+01  5.00000000000E-03  0.0000E+00  9.0
  3000022    1    4    4    0    0  1.11712313067E+02  2.35129977215E+00 -3.18504448266E+01  1.30765516621E+02  6.00000000000E+01  0.0000E+00  9.0
</event>
<event>
10    1   3.4312288E-02   4.9940000E+02  -1.0000000E+00   9.3500000E-02
       11   -1    0    0    0    0  0.00000000000E+00  0.00000000000E+00  2.49374828000E+02  2.49374828000E+02  0.00000000000E+00  0.0000E+00  9.0
      -11   -1    0    0    0    0  0.00000000000E+00  0.00000000000E+00 -2.50000000000E+02  2.50000000000E+02  0.00000000000E+00  0.0000E+00  9.0
  3000025    2    1    2    0    0 -1.47430536140E+02 -1.23884556255E+01 -1.22663045993E+02  2.49588431260E+02  1.59244859720E+02  2.4256E-12  9.0
 -3000025    2    1    2    0    0  1.47430536140E+02  1.23884556255E+01  1.22037873993E+02  2.49786396745E+02  1.60033635498E+02  7.3279E-14  9.0
        2    1    3    3  500    0  4.12486972929E+00  1.10907724664E+01 -4.06371840948E+01  4.23249397441E+01  3.00000000000E-03  0.0000E+00  9.0
       -1    1    3    3    0  500 -8.77262726196E+01  2.32929023379E+01 -3.36725235579E+01  9.68106248033E+01  5.00000000000E-03  0.0000E+00  9.0
  3000022    1    3    3    0    0 -6.38291332499E+01 -4.67721304298E+01 -4.83533383403E+01  1.10452866713E+02  6.00000000000E+01  0.0000E+00  9.0
       -4    1    4    4    0  504  4.99155063959E+01  5.83664527160E+01  6.08081265305E+01  9.79693031595E+01  1.46817165330E+00  0.0000E+00  9.0
        3    1    4    4  504    0  3.07854889248E+01 -2.74936509177E+01  4.06101669822E+01  5.79039966793E+01  2.00000000000E-01  0.0000E+00  9.0
  3000022    1    4    4    0    0  6.67295408190E+01 -1.84843461718E+01  2.06195804808E+01  9.39130969062E+01  6.00000000000E+01  0.0000E+00  9.0
</event>
<event>
10    1   3.4312288E-02   4.9460000E+02  -1.0000000E+00   9.3610000E-02
       11   -1    0    0    0    0  0.00000000000E+00  0.00000000000E+00  2.44622553400E+02  2.44622553400E+02  0.00000000000E+00  0.0000E+00  9.0
      -11   -1    0    0    0    0  0.00000000000E+00  0.00000000000E+00 -2.49996054310E+02  2.49996054310E+02  0.00000000000E+00  0.0000E+00  9.0
  3000025    2    1    2    0    0 -1.32718471262E+02  1.06218598140E+02 -8.39183080250E+01  2.48390850483E+02  1.60496569985E+02  1.0520E-12  9.0
 -3000025    2    1    2    0    0  1.32718471262E+02 -1.06218598140E+02  7.85448071170E+01  2.46227757224E+02  1.59881951756E+02  1.0955E-12  9.0
       14    1    3    3    0    0 -1.53935665468E+01  4.44858666222E+01 -3.52600304177E+01  5.88151678159E+01  0.00000000000E+00  0.0000E+00  9.0
      -13    1    3    3    0    0 -9.71418585249E+01  4.28927479151E+00 -3.29148330594E+01  1.02656397578E+02  1.05700000000E-01  0.0000E+00  9.0
  3000022    1    3    3    0    0 -2.01830461907E+01  5.74434567262E+01 -1.57434445479E+01  8.69192850892E+01  6.00000000000E+01  0.0000E+00  9.0
       -4    1    4    4    0  500 -1.34186589470E+00 -5.14769039968E+01  5.50368777474E+01  7.53849168558E+01  1.46817165330E+00  0.0000E+00  9.0
        3    1    4    4  500    0  3.39783932832E+01  9.89689954132E+00 -9.93338226856E-04  3.53909569188E+01  2.00000000000E-01  0.0000E+00  9.0
  3000022    1    4    4    0    0  1.00081943872E+02 -6.46385936841E+01  2.35089227066E+01  1.35451883448E+02  6.00000000000E+01  0.0000E+00  9.0
</event>
<event>
10    1   3.4312288E-02   3.7620000E+02  -1.0000000E+00   9.6750000E-02
       11   -1    0    0    0    0  0.00000000000E+00  0.00000000000E+00  2.25711076730E+02  2.25711076730E+02  0.00000000000E+00  0.0000E+00  9.0
      -11   -1    0    0    0    0  0.00000000000E+00  0.00000000000E+00 -1.56754268760E+02  1.56754268760E+02  0.00000000000E+00  0.0000E+00  9.0
  3000025    2    1    2    0    0  6.17440429440E+01 -7.12981980920E+01  4.12937611804E+00  1.85765761234E+02  1.59987832066E+02  1.5881E-12  9.0
 -3000025    2    1    2    0    0 -6.17440429440E+01  7.12981980920E+01  6.48274318614E+01  1.96699584257E+02  1.59976156457E+02  7.4349E-13  9.0
        4    1    3    3  500    0  3.99969328807E+01  1.99769130887E+01 -5.72433742556E-01  4.47360582172E+01  1.46817165330E+00  0.0000E+00  9.0
       -3    1    3    3    0  500  3.44197102843E+01 -6.19438174884E+01 -9.75268905853E+00  7.15325654856E+01  2.00000000000E-01  0.0000E+00  9.0
  3000022    1    3    3    0    0 -1.26726002198E+01 -2.93312936924E+01  1.44544989194E+01  6.94971375311E+01  6.00000000000E+01  0.0000E+00  9.0
      -14    1    4    4    0    0 -5.73802407589E+01  2.36217057206E+01  2.26204259690E+01  6.60466553409E+01  0.00000000000E+00  0.0000E+00  9.0
       13    1    4    4    0    0  1.52524339337E+01 -1.94903906555E+01 -7.58995737958E+00  2.58868826690E+01  1.05700000000E-01  0.0000E+00  9.0
  3000022    1    4    4    0    0 -1.96162361189E+01  6.71668830275E+01  4.97969632719E+01  1.04766046247E+02  6.00000000000E+01  0.0000E+00  9.0
</event>
<event>
10    1   3.4312288E-02   4.7430000E+02  -1.0000000E+00   9.4080000E-02
       11   -1    0    0    0    0  0.00000000000E+00  0.00000000000E+00  2.49869822710E+02  2.49869822710E+02  0.00000000000E+00  0.0000E+00  9.0
      -11   -1    0    0    0    0  0.00000000000E+00  0.00000000000E+00 -2.25092915240E+02  2.25092915240E+02  0.00000000000E+00  0.0000E+00  9.0
  3000025    2    1    2    0    0 -9.11156166541E+01  1.48668326252E+02  2.74957751873E+01  2.38264312221E+02  1.60029803462E+02  9.0309E-14  9.0
 -3000025    2    1    2    0    0  9.11156166541E+01 -1.48668326252E+02 -2.71886771475E+00  2.36698425739E+02  1.60045073891E+02  6.3105E-13  9.0
        4    1    3    3  500    0 -3.59426567820E+00 -1.24779769824E+01  5.79953773866E+00  1.42971613030E+01  1.46817165330E+00  0.0000E+00  9.0
       -3    1    3    3    0  500 -8.91590125742E+01  1.14990152577E+02  1.14597438473E+00  1.45510886088E+02  2.00000000000E-01  0.0000E+00  9.0
  3000022    1    3    3    0    0  1.63766159840E+00  4.61561506574E+01  2.05502630647E+01  7.84562648298E+01  6.00000000000E+01  0.0000E+00  9.0
       -4    1    4    4    0  504  5.76908391741E+01 -8.31009211765E+01  3.73187379260E+01  1.07837098224E+02  1.46817165330E+00  0.0000E+00  9.0
        3    1    4    4  504    0  1.46265392806E+01 -4.29315323238E+01 -4.22685797516E+01  6.19977818411E+01  2.00000000000E-01  0.0000E+00  9.0
  3000022    1    4    4    0    0  1.87982381988E+01 -2.26358727523E+01  2.23097411018E+00  6.68635456741E+01  6.00000000000E+01  0.0000E+00  9.0
</event>
<event>
10    1   3.4312288E-02   4.9770000E+02  -1.0000000E+00   9.3540000E-02
       11   -1    0    0    0    0  0.00000000000E+00  0.00000000000E+00  2.47934595480E+02  2.47934595480E+02  0.00000000000E+00  0.0000E+00  9.0
      -11   -1    0    0    0    0  0.00000000000E+00  0.00000000000E+00 -2.49740031480E+02  2.49740031480E+02  0.00000000000E+00  0.0000E+00  9.0
  3000025    2    1    2    0    0  8.94642699403E+01  7.64071909831E+00 -1.69039388565E+02  2.49403649161E+02  1.59892554999E+02  1.8003E-13  9.0
 -3000025    2    1    2    0    0 -8.94642699403E+01 -7.64071909831E+00  1.67233952565E+02  2.48270977796E+02  1.60028270443E+02  1.6809E-12  9.0
        4    1    3    3  500    0  3.01777089325E+01 -3.35497820579E+01 -7.05179452963E+00  4.56964476370E+01  1.46817165330E+00  0.0000E+00  9.0
       -3    1    3    3    0  500  2.32922602325E+01  4.17206881707E+01 -3.68711668646E+01  6.03545205774E+01  2.00000000000E-01  0.0000E+00  9.0
  3000022    1    3    3    0    0  3.59943007753E+01 -5.30187014636E-01 -1.25116427170E+02  1.43352680946E+02  6.00000000000E+01  0.0000E+00  9.0
       -2    1    4    4    0  504  6.78973017661E+00 -4.64180799960E+01  5.15136529467E+01  6.96734887550E+01  3.00000000000E-03  0.0000E+00  9.0
        1    1    4    4  504    0 -2.54665268516E+01  2.48665867735E+01  5.91461066087E+01  6.90300882196E+01  5.00000000000E-03  0.0000E+00  9.0
  3000022    1    4    4    0    0 -7.07874732653E+01  1.39107741242E+01  5.65741930097E+01  1.09567400821E+02  6.00000000000E+01  0.0000E+00  9.0
</event>
<event>
10    1   3.4312288E-02   4.9220000E+02  -1.0000000E+00   9.3660000E-02
       11   -1    0    0    0    0  0.00000000000E+00  0.00000000000E+00  2.49935972520E+02  2.49935972520E+02  0.00000000000E+00  0.0000E+00  9.0
      -11   -1    0    0    0    0  0.00000000000E+00  0.00000000000E+00 -2.42366154460E+02  2.42366154460E+02  0.00000000000E+00  0.0000E+00  9.0
  3000025    2    1    2    0    0  8.30258915537E+01 -1.58710669901E+02 -4.62197690255E+01  2.44608737608E+02  1.60046218502E+02  4.8098E-13  9.0
 -3000025    2    1    2    0    0 -8.30258915537E+01  1.58710669901E+02  5.37895870765E+01  2.47693389374E+02  1.62407881746E+02  1.9826E-12  9.0
        2    1    3    3  500    0  3.44956728091E+01 -1.44513117105E-01  3.01295035304E+00  3.46273043338E+01  3.00000000000E-03  0.0000E+00  9.0
       -1    1    3    3    0  500  3.35776824866E+01 -1.00340728015E+02 -6.41644918765E+01  1.23744917077E+02  5.00000000000E-03  0.0000E+00  9.0
  3000022    1    3    3    0    0  1.49525362577E+01 -5.82254287686E+01  1.49317724980E+01  8.62365161968E+01  6.00000000000E+01  0.0000E+00  9.0
       -4    1    4    4    0  504 -3.89957224744E+01  4.73117664254E+01  6.41539619160E+01  8.87522167110E+01  1.46817165330E+00  0.0000E+00  9.0
        3    1    4    4  504    0 -3.65533448486E+01  1.85610419469E+01 -2.36936038922E+01  4.73506722569E+01  2.00000000000E-01  0.0000E+00  9.0
  3000022    1    4    4    0    0 -7.47682423064E+00  9.28378615286E+01  1.33292290530E+01  1.11590500406E+02  6.00000000000E+01  0.0000E+00  9.0
</event>
<event>
10    1   3.4312288E-02   4.9500000E+02  -1.0000000E+00   9.3600000E-02
       11   -1    0    0    0    0  0.00000000000E+00  0.00000000000E+00  2.45079597350E+02  2.45079597350E+02  0.00000000000E+00  0.0000E+00  9.0
      -11   -1    0    0    0    0  0.00000000000E+00  0.00000000000E+00 -2.49994628840E+02  2.49994628840E+02  0.00000000000E+00  0.0000E+00  9.0
  3000025    2    1    2    0    0 -1.14405413264E+02 -1.28289657341E+02 -8.03616049036E+01  2.48348660139E+02  1.60225574380E+02  2.7670E-12  9.0
 -3000025    2    1    2    0    0  1.14405413264E+02  1.28289657341E+02  7.54465734116E+01  2.46725566058E+02  1.60107728553E+02  2.9772E-13  9.0
        2    1    3    3  500    0 -7.47357355336E+00 -2.85151157421E+01 -4.65691325901E+01  5.51148822609E+01  3.00000000000E-03  0.0000E+00  9.0
       -1    1    3    3    0  500 -6.55048241613E+01 -2.63470027183E+00  4.95223258564E+00  6.57445683422E+01  5.00000000000E-03  0.0000E+00  9.0
  3000022    1    3    3    0    0 -4.14270155491E+01 -9.71398413268E+01 -3.87447048989E+01  1.27489209536E+02  6.00000000000E+01  0.0000E+00  9.0
       -2    1    4    4    0  504  5.32632060865E+01 -4.90774578051E+00  4.35982882049E+01  6.90062738789E+01  3.00000000000E-03  0.0000E+00  9.0
        1    1    4    4  504    0 -1.39373686753E+01  3.38562264217E+01  6.04673511168E+00  3.71087232820E+01  5.00000000000E-03  0.0000E+00  9.0
  3000022    1    4    4    0    0  7.50795758526E+01  9.93411766995E+01  2.58015500953E+01  1.40610568897E+02  6.00000000000E+01  0.0000E+00  9.0
</event>
<event>
10    1   3.4312288E-02   4.9230000E+02  -1.0000000E+00   9.3660000E-02
       11   -1    0    0    0    0  0.00000000000E+00  0.00000000000E+00  2.49998964400E+02  2.49998964400E+02  0.00000000000E+00  0.0000E+00  9.0
      -11   -1    0    0    0    0  0.00000000000E+00  0.00000000000E+00 -2.42396186960E+02  2.42396186960E+02  0.00000000000E+00  0.0000E+00  9.0
  3000025    2    1    2    0    0  6.24782117827E+01 -1.76534648742E+02 -7.82550923792E+00  2.46347324149E+02  1.59867934142E+02  2.2880E-12  9.0
 -3000025    2    1    2    0    0 -6.24782117827E+01  1.76534648742E+02  1.54282866752E+01  2.46047827209E+02  1.58850533807E+02  9.5256E-13  9.0
        2    1    3    3  500    0 -1.67632954352E+01  2.85545018689E+00 -6.87567028835E-01  1.70186493893E+01  3.00000000000E-03  0.0000E+00  9.0
       -1    1    3    3    0  500  2.27034607677E+01 -1.31159472099E+02 -1.22945968209E+01  1.33676517714E+02  5.00000000000E-03  0.0000E+00  9.0
  3000022    1    3    3    0    0  5.65380464496E+01 -4.82306268290E+01  5.15665461175E+00  9.56521570454E+01  6.00000000000E+01  0.0000E+00  9.0
       -4    1    4    4    0  504 -2.65492427799E+01  3.26359553419E+01 -3.82700043843E+01  5.68921491671E+01  1.46817165330E+00  0.0000E+00  9.0
        3    1    4    4  504    0 -3.78249043515E+01  1.00086122631E+02  2.92833920992E+01  1.10930214033E+02  2.00000000000E-01  0.0000E+00  9.0
  3000022    1    4    4    0    0  1.89593534978E+00  4.38125707687E+01  2.44148989604E+01  7.82254640092E+01  6.00000000000E+01  0.0000E+00  9.0
</event>
<event>
10    1   3.4312288E-02   4.6840000E+02  -1.0000000E+00   9.4220000E-02
       11   -1    0    0    0    0  0.00000000000E+00  0.00000000000E+00  2.48788886220E+02  2.48788886220E+02  0.00000000000E+00  0.0000E+00  9.0
      -11   -1    0    0    0    0  0.00000000000E+00  0.00000000000E+00 -2.20480393030E+02  2.20480393030E+02  0.00000000000E+00  0.0000E+00  9.0
  3000025    2    1    2    0    0 -1.48690169040E+02 -8.35879169499E+01  3.55309005389E-01  2.33842570964E+02  1.59957855454E+02  1.1710E-12  9.0
 -3000025    2    1    2    0    0  1.48690169040E+02  8.35879169499E+01  2.79531841782E+01  2.35426708291E+02  1.59839445200E+02  4.6400E-14  9.0
        4    1    3    3  500    0 -8.75738313377E+01 -8.21147020841E+01 -3.32116997622E+01  1.24567944362E+02  1.46817165330E+00  0.0000E+00  9.0
       -3    1    3    3    0  500 -3.74280040363E+01  5.35913996024E+00  2.08298109092E+01  4.31682393637E+01  2.00000000000E-01  0.0000E+00  9.0
  3000022    1    3    3    0    0 -2.36883336653E+01 -6.83235482604E+00  1.27371978594E+01  6.61063872377E+01  6.00000000000E+01  0.0000E+00  9.0
      -14    1    4    4    0    0 -2.96753923851E+00  1.38711280104E+01  3.94598974998E+01  4.19320640097E+01  0.00000000000E+00  0.0000E+00  9.0
       13    1    4    4    0    0  3.38230841922E+01  1.70445570961E+01 -3.21368134354E+01  4.96719629282E+01  1.05700000000E-01  0.0000E+00  9.0
  3000022    1    4    4    0    0  1.17834624086E+02  5.26722318435E+01  2.06301001143E+01  1.43822681353E+02  6.00000000000E+01  0.0000E+00  9.0
</event>
<event>
10    1   3.4312288E-02   4.9850000E+02  -1.0000000E+00   9.3520000E-02
       11   -1    0    0    0    0  0.00000000000E+00  0.00000000000E+00  2.49999993550E+02  2.49999993550E+02  0.00000000000E+00  0.0000E+00  9.0
      -11   -1    0    0    0    0  0.00000000000E+00  0.00000000000E+00 -2.48518526200E+02  2.48518526200E+02  0.00000000000E+00  0.0000E+00  9.0
  3000025    2    1    2    0    0 -1.38147281265E+02  9.17429007923E+01 -9.42202870917E+01  2.48957242754E+02  1.60002547022E+02  9.4918E-13  9.0
 -3000025    2    1    2    0    0  1.38147281265E+02 -9.17429007923E+01  9.57017544387E+01  2.49561276995E+02  1.60064280856E+02  1.7695E-13  9.0
        2    1    3    3  500    0 -5.46091172900E+01  4.63115326158E+00 -6.47709262587E+01  8.48461912471E+01  3.00000000000E-03  0.0000E+00  9.0
       -1    1    3    3    0  500  9.11433614564E+00  5.65700331173E+00  1.62885581857E+01  1.95035884548E+01  5.00000000000E-03  0.0000E+00  9.0
  3000022    1    3    3    0    0 -9.26525001200E+01  8.14547442187E+01 -4.57379190184E+01  1.44607463052E+02  6.00000000000E+01  0.0000E+00  9.0
       -4    1    4    4    0  504  4.39555423891E+01 -6.19339217926E+01  7.79174200587E+01  1.08817187300E+02  1.46817165330E+00  0.0000E+00  9.0
        3    1    4    4  504    0  1.35548558531E+01  2.23764326932E+01  6.31965759317E+00  2.69149945081E+01  2.00000000000E-01  0.0000E+00  9.0
  3000022    1    4    4    0    0  8.06368830225E+01 -5.21854116929E+01  1.14646767866E+01  1.13829095186E+02  6.00000000000E+01  0.0000E+00  9.0
</event>
<event>
10    1   3.4312288E-02   4.7810000E+02  -1.0000000E+00   9.3990000E-02
       11   -1    0    0    0    0  0.00000000000E+00  0.00000000000E+00  2.29574339230E+02  2.29574339230E+02  0.00000000000E+00  0.0000E+00  9.0
      -11   -1    0    0    0    0  0.00000000000E+00  0.00000000000E+00 -2.48950412770E+02  2.48950412770E+02  0.00000000000E+00  0.0000E+00  9.0
  3000025    2    1    2    0    0 -9.12472109524E+01  1.06636606064E+02 -1.18378504412E+02  2.43754064251E+02  1.60328270348E+02  1.2840E-12  9.0
 -3000025    2    1    2    0    0  9.12472109524E+01 -1.06636606064E+02  9.90024308761E+01  2.34770687746E+02  1.60057412343E+02  1.0850E-12  9.0
        2    1    3    3  500    0  2.34327300649E+01  3.61173664003E+00 -1.58823310041E+00  2.37625750548E+01  3.00000000000E-03  0.0000E+00  9.0
       -1    1    3    3    0  500 -6.71702388431E+01  8.10221869570E+01 -8.03869109635E+01  1.32432968874E+02  5.00000000000E-03  0.0000E+00  9.0
  3000022    1    3    3    0    0 -4.75097021743E+01  2.20026824670E+01 -3.64033603485E+01  8.75585203227E+01  6.00000000000E+01  0.0000E+00  9.0
       -4    1    4    4    0  504  1.05101974056E+02 -4.90178006323E+01  4.51347428656E+01  1.24452682860E+02  1.46817165330E+00  0.0000E+00  9.0
        3    1    4    4  504    0 -7.95931021273E+00 -1.42518379718E+01 -3.22799165963E+00  1.66410767318E+01  2.00000000000E-01  0.0000E+00  9.0
  3000022    1    4    4    0    0 -5.89545289142E+00 -4.33669674598E+01  5.70956796697E+01  9.36769281542E+01  6.00000000000E+01  0.0000E+00  9.0
</event>
<event>
10    1   3.4312288E-02   4.9990000E+02  -1.0000000E+00   9.3490000E-02
       11   -1    0    0    0    0  0.00000000000E+00  0.00000000000E+00  2.49944841570E+02  2.49944841570E+02  0.00000000000E+00  0.0000E+00  9.0
      -11   -1    0    0    0    0  0.00000000000E+00  0.00000000000E+00 -2.49958980330E+02  2.49958980330E+02  0.00000000000E+00  0.0000E+00  9.0
  3000025    2    1    2    0    0  9.10317357065E+01  1.45932172805E+02  8.57913700229E+01  2.49986173219E+02  1.59843522437E+02  2.4298E-12  9.0
 -3000025    2    1    2    0    0 -9.10317357065E+01 -1.45932172805E+02 -8.58055087839E+01  2.49917648691E+02  1.59728738254E+02  2.8446E-12  9.0
        4    1    3    3  500    0  1.15739823689E+01  6.32515169276E+01 -2.05009309239E+01  6.75067045431E+01  1.46817165330E+00  0.0000E+00  9.0
       -3    1    3    3    0  500  5.09106283211E+01  5.86162149206E+01  5.41850866381E+01  9.46774331171E+01  2.00000000000E-01  0.0000E+00  9.0
  3000022    1    3    3    0    0  2.85471250157E+01  2.40644409568E+01  5.21072143086E+01  8.78020355586E+01  6.00000000000E+01  0.0000E+00  9.0
       -4    1    4    4    0  504 -4.67204375572E+01 -6.96640471739E+01  5.90321017238E-01  8.38950699451E+01  1.46817165330E+00  0.0000E+00  9.0
        3    1    4    4  504    0 -1.23829526223E+01  2.02112555127E+01 -1.27872811825E+01  2.69330080958E+01  2.00000000000E-01  0.0000E+00  9.0
  3000022    1    4    4    0    0 -3.19283455265E+01 -9.64793811438E+01 -7.36085486179E+01  1.39089570650E+02  6.00000000000E+01  0.0000E+00  9.0
</event>
<event>
10    1   3.4312288E-02   4.8290000E+02  -1.0000000E+00   9.3880000E-02
       11   -1    0    0    0    0  0.00000000000E+00  0.00000000000E+00  2.49994807970E+02  2.49994807970E+02  0.00000000000E+00  0.0000E+00  9.0
      -11   -1    0    0    0    0  0.00000000000E+00  0.00000000000E+00 -2.33177613630E+02  2.33177613630E+02  0.00000000000E+00  0.0000E+00  9.0
  3000025    2    1    2    0    0  6.53169047525E+00  1.80724653117E+02  1.42576612966E+01  2.41844629284E+02  1.59942116351E+02  5.5862E-13  9.0
 -3000025    2    1    2    0    0 -6.53169047525E+00 -1.80724653117E+02  2.55953304882E+00  2.41327792311E+02  1.59776371556E+02  7.3767E-14  9.0
        2    1    3    3  500    0  1.84687434266E+01  3.56709497730E+00  1.89914333696E+01  2.67300056261E+01  3.00000000000E-03  0.0000E+00  9.0
       -1    1    3    3    0  500  2.37136110693E+01  6.33980276585E+01 -3.79231065144E+01  7.75874171089E+01  5.00000000000E-03  0.0000E+00  9.0
  3000022    1    3    3    0    0 -3.56506640207E+01  1.13759530481E+02  3.31893344414E+01  1.37527206548E+02  6.00000000000E+01  0.0000E+00  9.0
       -2    1    4    4    0  504  5.17376787003E+00 -1.23387410579E+01 -3.72992362379E+01  3.96263225369E+01  3.00000000000E-03  0.0000E+00  9.0
        1    1    4    4  504    0  1.98868626153E+01 -4.85435559990E+01  3.66029393099E+01  6.39667048146E+01  5.00000000000E-03  0.0000E+00  9.0
  3000022    1    4    4    0    0 -3.15923209606E+01 -1.19842356061E+02  3.25582997666E+00  1.37734764961E+02  6.00000000000E+01  0.0000E+00  9.0
</event>
<event>
10    1   3.4312288E-02   4.9690000E+02  -1.0000000E+00   9.3560000E-02
       11   -1    0    0    0    0  0.00000000000E+00  0.00000000000E+00  2.46910938540E+02  2.46910938540E+02  0.00000000000E+00  0.0000E+00  9.0
      -11   -1    0    0    0    0  0.00000000000E+00  0.00000000000E+00 -2.49999999850E+02  2.49999999850E+02  0.00000000000E+00  0.0000E+00  9.0
  3000025    2    1    2    0    0  1.05247712872E+02  1.34900702449E+02 -8.47499568719E+01  2.49108913658E+02  1.59991921947E+02  7.8646E-13  9.0
 -3000025    2    1    2    0    0 -1.05247712872E+02 -1.34900702449E+02  8.16608955539E+01  2.47802024736E+02  1.59568358438E+02  1.3094E-12  9.0
        2    1    3    3  500    0 -1.66870764236E+00  9.25922035072E+01 -2.04127903330E+01  9.48302839482E+01  3.00000000000E-03  0.0000E+00  9.0
       -1    1    3    3    0  500  2.04900898788E+01 -8.31533239210E+00 -1.85536349885E+01  2.88656531594E+01  5.00000000000E-03  0.0000E+00  9.0
  3000022    1    3    3    0    0  8.64263306362E+01  5.06238313350E+01 -4.57835315507E+01  1.25412976552E+02  6.00000000000E+01  0.0000E+00  9.0
       -4    1    4    4    0  504 -2.36070962665E+01 -1.72823602637E+01  4.50268469016E+01  5.37172918186E+01  1.46817165330E+00  0.0000E+00  9.0
        3    1    4    4  504    0  6.39565587381E+00 -4.96311957287E+01 -2.21193488795E+01  5.47125725805E+01  2.00000000000E-01  0.0000E+00  9.0
  3000022    1    4    4    0    0 -8.80362724798E+01 -6.79871464556E+01  5.87533975317E+01  1.39372160336E+02  6.00000000000E+01  0.0000E+00  9.0
</event>
<event>
10    1   3.4312288E-02   4.7900000E+02  -1.0000000E+00   9.3970000E-02
       11   -1    0    0    0    0  0.00000000000E+00  0.00000000000E+00  2.29408305430E+02  2.29408305430E+02  0.00000000000E+00  0.0000E+00  9.0
      -11   -1    0    0    0    0  0.00000000000E+00  0.00000000000E+00 -2.50000000000E+02  2.50000000000E+02  0.00000000000E+00  0.0000E+00  9.0
  3000025    2    1    2    0    0  6.45689362120E+01  1.62920263685E+02 -4.28878324421E+01  2.41054775763E+02  1.59862062115E+02  4.6519E-13  9.0
 -3000025    2    1    2    0    0 -6.45689362120E+01 -1.62920263685E+02  2.22961378751E+01  2.38353529667E+02  1.60009773132E+02  2.4431E-12  9.0
        4    1    3    3  500    0  1.51262628084E+01  1.02474609299E+02 -1.62130354560E+01  1.04856413367E+02  1.46817165330E+00  0.0000E+00  9.0
       -3    1    3    3    0  500  5.71801182789E-01  1.77347757696E+00  2.57643213127E+01  2.58323911400E+01  2.00000000000E-01  0.0000E+00  9.0
  3000022    1    3    3    0    0  4.88708722214E+01  5.86721768097E+01 -5.24391182995E+01  1.10365971256E+02  6.00000000000E+01  0.0000E+00  9.0
       -4    1    4    4    0  504  1.16671449345E+01 -7.48643217757E+01  1.75076083759E+01  7.77782799045E+01  1.46817165330E+00  0.0000E+00  9.0
        3    1    4    4  504    0 -4.82434206173E+01 -5.20635659094E+01 -3.06313812766E+01  7.73069469516E+01  2.00000000000E-01  0.0000E+00  9.0
  3000022    1    4    4    0    0 -2.79926605289E+01 -3.59923760001E+01  3.54199107768E+01  8.32683028112E+01  6.00000000000E+01  0.0000E+00  9.0
</event>
<event>
10    1   3.4312288E-02   4.9990000E+02  -1.0000000E+00   9.3490000E-02
       11   -1    0    0    0    0  0.00000000000E+00  0.00000000000E+00  2.49938902240E+02  2.49938902240E+02  0.00000000000E+00  0.0000E+00  9.0
      -11   -1    0    0    0    0  0.00000000000E+00  0.00000000000E+00 -2.49999997280E+02  2.49999997280E+02  0.00000000000E+00  0.0000E+00  9.0
  3000025    2    1    2    0    0 -1.66775722168E+02 -9.24061141625E+01  2.30650659799E+01  2.49961028535E+02  1.59985896498E+02  7.3289E-14  9.0
 -3000025    2    1    2    0    0  1.66775722168E+02  9.24061141625E+01 -2.31261610149E+01  2.49977870985E+02  1.60003391275E+02  4.0354E-12  9.0
        2    1    3    3  500    0 -5.64927819728E+01 -7.34877846346E+01  1.87825130627E+01  9.45762745697E+01  3.00000000000E-03  0.0000E+00  9.0
       -1    1    3    3    0  500  1.41198570801E+01  4.18964302451E+00  4.32038628534E+00  1.53489164207E+01  5.00000000000E-03  0.0000E+00  9.0
  3000022    1    3    3    0    0 -1.24402797276E+02 -2.31079725524E+01 -3.78333672902E-02  1.40035837545E+02  6.00000000000E+01  0.0000E+00  9.0
       -4    1    4    4    0  504  2.26868579962E+01 -5.64977879622E+00  3.40423894502E+01  4.13237623368E+01  1.46817165330E+00  0.0000E+00  9.0
        3    1    4    4  504    0  6.26029648568E+01  1.28458935601E+01 -3.96514089017E+01  7.52091910481E+01  2.00000000000E-01  0.0000E+00  9.0
  3000022    1    4    4    0    0  8.14858993160E+01  8.52099993987E+01 -1.75171415636E+01  1.33444917601E+02  6.00000000000E+01  0.0000E+00  9.0
</event>
<event>
10    1   3.4312288E-02   4.8860000E+02  -1.0000000E+00   9.3750000E-02
       11   -1    0    0    0    0  0.00000000000E+00  0.00000000000E+00  2.49918591770E+02  2.49918591770E+02  0.00000000000E+00  0.0000E+00  9.0
      -11   -1    0    0    0    0  0.00000000000E+00  0.00000000000E+00 -2.38821203090E+02  2.38821203090E+02  0.00000000000E+00  0.0000E+00  9.0
  3000025    2    1    2    0    0 -3.03365437021E+01  1.81696391068E+02  1.67989121301E+01  2.44542569757E+02  1.59953057376E+02  3.6864E-12  9.0
 -3000025    2    1    2    0    0  3.03365437021E+01 -1.81696391068E+02 -5.70152345623E+00  2.44197225110E+02  1.60205783200E+02  1.1858E-13  9.0
        4    1    3    3  500    0 -1.62700169485E+00  2.26920656074E+01 -2.53904045231E+01  3.41233812201E+01  1.46817165330E+00  0.0000E+00  9.0
       -3    1    3    3    0  500  9.68471403216E+00  1.06123993182E+02  5.64045031508E+01  1.20571985098E+02  2.00000000000E-01  0.0000E+00  9.0
  3000022    1    3    3    0    0 -3.83942560388E+01  5.28803322781E+01 -1.42151864976E+01  8.98472034388E+01  6.00000000000E+01  0.0000E+00  9.0
      -14    1    4    4    0    0  6.58429792123E+00 -8.55390875185E+01  2.68072167053E+00  8.58339952542E+01  0.00000000000E+00  0.0000E+00  9.0
       13    1    4    4    0    0  4.89128084627E+01 -1.34335817865E+01 -1.50461457172E+01  5.29086157895E+01  1.05700000000E-01  0.0000E+00  9.0
  3000022    1    4    4    0    0 -2.51605626820E+01 -8.27237217625E+01  6.66390059078E+00  1.05454614066E+02  6.00000000000E+01  0.0000E+00  9.0
</event>
<event>
10    1   3.4312288E-02   5.0000000E+02  -1.0000000E+00   9.3490000E-02
       11   -1    0    0    0    0  0.00000000000E+00  0.00000000000E+00  2.50000000000E+02  2.50000000000E+02  0.00000000000E+00  0.0000E+00  9.0
      -11   -1    0    0    0    0  0.00000000000E+00  0.00000000000E+00 -2.50000000000E+02  2.50000000000E+02  0.00000000000E+00  0.0000E+00  9.0
  3000025    2    1    2    0    0 -1.32842874380E+02 -1.24598695637E+02 -6.14015103659E+01  2.49992823703E+02  1.59856817809E+02  3.0124E-13  9.0
 -3000025    2    1    2    0    0  1.32842874380E+02  1.24598695637E+02  6.14015103659E+01  2.50007176291E+02  1.59879262238E+02  1.8662E-12  9.0
        2    1    3    3  500    0 -4.90383305580E+00  1.34020018047E+01  2.35170153802E+01  2.75083851290E+01  3.00000000000E-03  0.0000E+00  9.0
       -1    1    3    3    0  500 -4.89380248347E+01 -2.58137528177E+01 -1.57575444430E+01  5.75289521991E+01  5.00000000000E-03  0.0000E+00  9.0
  3000022    1    3    3    0    0 -7.90010164907E+01 -1.12186944624E+02 -6.91609813037E+01  1.64955486376E+02  6.00000000000E+01  0.0000E+00  9.0
       -2    1    4    4    0  504  7.92599695211E-01  3.71301384290E+01  4.30379442886E+01  5.68466362384E+01  3.00000000000E-03  0.0000E+00  9.0
        1    1    4    4  504    0  9.68937828991E+01  3.32400056366E+01  2.24967242770E+01  1.04878051886E+02  5.00000000000E-03  0.0000E+00  9.0
  3000022    1    4    4    0    0  3.51564917862E+01  5.42285515717E+01 -4.13315819890E+00  8.82824881671E+01  6.00000000000E+01  0.0000E+00  9.0
</event>
<event>
10    1   3.4312288E-02   5.0000000E+02  -1.0000000E+00   9.3490000E-02
       11   -1    0    0    0    0  0.00000000000E+00  0.00000000000E+00  2.50000000000E+02  2.50000000000E+02  0.00000000000E+00  0.0000E+00  9.0
      -11   -1    0    0    0    0  0.00000000000E+00  0.00000000000E+00 -2.50000000000E+02  2.50000000000E+02  0.00000000000E+00  0.0000E+00  9.0
  3000025    2    1    2    0    0  1.32189457512E+01 -1.80520627313E+02  6.37938516299E+01  2.50093047353E+02  1.60357224397E+02  1.3573E-12  9.0
 -3000025    2    1    2    0    0 -1.32189457512E+01  1.80520627313E+02 -6.37938516299E+01  2.49906952641E+02  1.60066836228E+02  9.9212E-13  9.0
        2    1    3    3  500    0  7.65070006088E+00 -5.48565096796E+01 -1.63940956374E+01  5.77627583000E+01  3.00000000000E-03  0.0000E+00  9.0
       -1    1    3    3    0  500 -2.40454245588E+01 -8.41923064604E+01  7.16693619505E+01  1.13150450183E+02  5.00000000000E-03  0.0000E+00  9.0
  3000022    1    3    3    0    0  2.96136702491E+01 -4.14718111734E+01  8.51858531686E+00  7.91798388697E+01  6.00000000000E+01  0.0000E+00  9.0
       -4    1    4    4    0  504 -8.44967291683E+00 -1.30985142450E+01 -1.34384845455E+00  1.57139907248E+01  1.46817165330E+00  0.0000E+00  9.0
        3    1    4    4  504    0  7.56136520668E+00  6.76189119632E+01  2.08941879781E+01  7.11765311752E+01  2.00000000000E-01  0.0000E+00  9.0
  3000022    1    4    4    0    0 -1.23306380405E+01  1.26000229595E+02 -8.33441911532E+01  1.63016430741E+02  6.00000000000E+01  0.0000E+00  9.0
</event>
<event>
10    1   3.4312288E-02   3.9630000E+02  -1.0000000E+00   9.6140000E-02
       11   -1    0    0    0    0  0.00000000000E+00  0.00000000000E+00  2.06571016240E+02  2.06571016240E+02  0.00000000000E+00  0.0000E+00  9.0
      -11   -1    0    0    0    0  0.00000000000E+00  0.00000000000E+00 -1.90058648980E+02  1.90058648980E+02  0.00000000000E+00  0.0000E+00  9.0
  3000025    2    1    2    0    0 -8.57518962573E+01 -3.69060210265E+01 -6.33216876793E+01  1.94873282845E+02  1.58904116172E+02  1.4397E-12  9.0
 -3000025    2    1    2    0    0  8.57518962573E+01  3.69060210265E+01  7.98340549383E+01  2.01756382383E+02  1.60052239611E+02  1.7860E-12  9.0
        4    1    3    3  500    0 -5.44178300130E+00  3.78145167295E+01 -4.44178988565E+00  3.84894232629E+01  1.46817165330E+00  0.0000E+00  9.0
       -3    1    3    3    0  500 -3.41106025618E+00 -3.76995050529E+01 -2.95230429496E+01  4.80056046552E+01  2.00000000000E-01  0.0000E+00  9.0
  3000022    1    3    3    0    0 -7.68990529999E+01 -3.70210327032E+01 -2.93568548446E+01  1.08378254927E+02  6.00000000000E+01  0.0000E+00  9.0
       -4    1    4    4    0  504 -8.61417041214E+00 -2.05868602365E+01  3.18324033310E+00  2.25900706796E+01  1.46817165330E+00  0.0000E+00  9.0
        3    1    4    4  504    0  7.84039200607E+01  2.37179727186E+01  1.09041284091E+01  8.26356879752E+01  2.00000000000E-01  0.0000E+00  9.0
  3000022    1    4    4    0    0  1.59621466099E+01  3.37749085445E+01  6.57466861964E+01  9.65306237284E+01  6.00000000000E+01  0.0000E+00  9.0
</event>
<event>
10    1   3.4312288E-02   4.9310000E+02  -1.0000000E+00   9.3640000E-02
       11   -1    0    0    0    0  0.00000000000E+00  0.00000000000E+00  2.47304007840E+02  2.47304007840E+02  0.00000000000E+00  0.0000E+00  9.0
      -11   -1    0    0    0    0  0.00000000000E+00  0.00000000000E+00 -2.45836470080E+02  2.45836470080E+02  0.00000000000E+00  0.0000E+00  9.0
  3000025    2    1    2    0    0 -1.40539310364E+02 -9.42771364253E+01  8.16810480212E+01  2.46798776607E+02  1.59994894664E+02  1.2360E-12  9.0
 -3000025    2    1    2    0    0  1.40539310364E+02  9.42771364253E+01 -8.02135102622E+01  2.46341701322E+02  1.60032966515E+02  2.7985E-12  9.0
       14    1    3    3    0    0  9.71877137541E+00 -1.21709726242E+00  2.51799341016E+01  2.70178630568E+01  0.00000000000E+00  0.0000E+00  9.0
      -13    1    3    3    0    0 -6.51779249832E+01 -6.76166718360E+01 -8.72454155389E+00  9.43202258962E+01  1.05700000000E-01  0.0000E+00  9.0
  3000022    1    3    3    0    0 -8.50801567560E+01 -2.54433673270E+01  6.52256554745E+01  1.25460687654E+02  6.00000000000E+01  0.0000E+00  9.0
       -4    1    4    4    0  500  2.18318415291E+01  5.86481065347E+01 -6.57574682534E+01  9.07878288306E+01  1.46817165330E+00  0.0000E+00  9.0
        3    1    4    4  500    0  3.15018632736E+01  2.35206527495E+01  1.92930571697E+01  4.37932706066E+01  2.00000000000E-01  0.0000E+00  9.0
  3000022    1    4    4    0    0  8.72056055613E+01  1.21083771408E+01 -3.37490991783E+01  1.11760601885E+02  6.00000000000E+01  0.0000E+00  9.0
</event>
<event>
10    1   3.4312288E-02   4.7970000E+02  -1.0000000E+00   9.3950000E-02
       11   -1    0    0    0    0  0.00000000000E+00  0.00000000000E+00  2.30123670500E+02  2.30123670500E+02  0.00000000000E+00  0.0000E+00  9.0
      -11   -1    0    0    0    0  0.00000000000E+00  0.00000000000E+00 -2.49999949820E+02  2.49999949820E+02  0.00000000000E+00  0.0000E+00  9.0
  3000025    2    1    2    0    0  1.24705220473E+02 -7.27104377441E+01 -1.13949480515E+02  2.43894946946E+02  1.60193824056E+02  2.6426E-12  9.0
 -3000025    2    1    2    0    0 -1.24705220473E+02  7.27104377441E+01  9.40732011920E+01  2.36228673373E+02  1.61604514698E+02  7.3735E-13  9.0
        4    1    3    3  500    0  1.78805330100E+01 -6.87639428539E+01 -3.84232409950E+01  8.07879587198E+01  1.46817165330E+00  0.0000E+00  9.0
       -3    1    3    3    0  500  7.03794693599E+01 -9.57882128184E+00 -2.10880409116E+01  7.40929753351E+01  2.00000000000E-01  0.0000E+00  9.0
  3000022    1    3    3    0    0  3.64452181031E+01  5.63232639161E+00 -5.44381986086E+01  8.90140128907E+01  6.00000000000E+01  0.0000E+00  9.0
       -2    1    4    4    0  504 -2.77841258862E+01  1.96935351196E+00 -2.66938249971E+01  3.85797395856E+01  3.00000000000E-03  0.0000E+00  9.0
        1    1    4    4  504    0 -7.92276199267E+00  4.40753147476E+01  4.56904948684E+01  6.39767526060E+01  5.00000000000E-03  0.0000E+00  9.0
  3000022    1    4    4    0    0 -8.89983325940E+01  2.66657694855E+01  7.50765313197E+01  1.33672181181E+02  6.00000000000E+01  0.0000E+00  9.0
</event>
<event>
10    1   3.4312288E-02   4.4060000E+02  -1.0000000E+00   9.4910000E-02
       11   -1    0    0    0    0  0.00000000000E+00  0.00000000000E+00  2.49999999990E+02  2.49999999990E+02  0.00000000000E+00  0.0000E+00  9.0
      -11   -1    0    0    0    0  0.00000000000E+00  0.00000000000E+00 -1.94094766730E+02  1.94094766730E+02  0.00000000000E+00  0.0000E+00  9.0
  3000025    2    1    2    0    0 -7.97004142626E+00 -1.05641589802E+02  1.37053615473E+02  2.35777648420E+02  1.59949176066E+02  1.9708E-12  9.0
 -3000025    2    1    2    0    0  7.97004142626E+00  1.05641589802E+02 -8.11483822129E+01  2.08317118300E+02  1.59960291275E+02  3.3393E-12  9.0
        4    1    3    3  500    0 -2.03157452269E+01 -3.81805787914E+01  8.26426471820E+01  9.32869163507E+01  1.46817165330E+00  0.0000E+00  9.0
       -3    1    3    3    0  500 -2.73778009199E+01 -8.43175561368E+00 -8.81655576149E+00  2.99734906448E+01  2.00000000000E-01  0.0000E+00  9.0
  3000022    1    3    3    0    0  3.97235047205E+01 -5.90292553965E+01  6.32275240530E+01  1.12517241425E+02  6.00000000000E+01  0.0000E+00  9.0
      -14    1    4    4    0    0 -1.66630862562E+01  5.06366152084E+01 -7.19986856095E+01  8.95853557946E+01  0.00000000000E+00  0.0000E+00  9.0
       13    1    4    4    0    0  1.74780415183E+01  5.24662038122E+01  7.98119674352E+00  5.58739219290E+01  1.05700000000E-01  0.0000E+00  9.0
  3000022    1    4    4    0    0  7.15508616423E+00  2.53877078122E+00 -1.71308933469E+01  6.28578405767E+01  6.00000000000E+01  0.0000E+00  9.0
</event>
<event>
10    1   3.4312288E-02   4.8420000E+02  -1.0000000E+00   9.3850000E-02
       11   -1    0    0    0    0  0.00000000000E+00  0.00000000000E+00  2.49997734890E+02  2.49997734890E+02  0.00000000000E+00  0.0000E+00  9.0
      -11   -1    0    0    0    0  0.00000000000E+00  0.00000000000E+00 -2.34494879540E+02  2.34494879540E+02  0.00000000000E+00  0.0000E+00  9.0
  3000025    2    1    2    0    0  7.10091262985E+01 -1.60698657784E+02 -3.88066028282E+01  2.40702685805E+02  1.59892075786E+02  3.1382E-14  9.0
 -3000025    2    1    2    0    0 -7.10091262985E+01  1.60698657784E+02  5.43094581752E+01  2.43789928612E+02  1.60055169908E+02  2.6500E-13  9.0
        2    1    3    3  500    0 -3.81556955825E+00 -3.62738494838E+01  3.16911534550E+01  4.83185258853E+01  3.00000000000E-03  0.0000E+00  9.0
       -1    1    3    3    0  500  4.62358950991E+01 -1.24824039755E+01 -2.77989656917E+01  5.53746415171E+01  5.00000000000E-03  0.0000E+00  9.0
  3000022    1    3    3    0    0  2.85888007576E+01 -1.11942404326E+02 -4.26987905916E+01  1.37009518403E+02  6.00000000000E+01  0.0000E+00  9.0
       -4    1    4    4    0  504 -5.66196196308E+01  1.53640374053E+01 -7.54821058105E+00  5.91689613185E+01  1.46817165330E+00  0.0000E+00  9.0
        3    1    4    4  504    0 -5.29282609606E+00  4.20166225184E+01  4.79823105552E+01  6.39980679564E+01  2.00000000000E-01  0.0000E+00  9.0
  3000022    1    4    4    0    0 -9.09668057160E+00  1.03317997861E+02  1.38753582011E+01  1.20622899337E+02  6.00000000000E+01  0.0000E+00  9.0
</event>
<event>
10    1   3.4312288E-02   4.9600000E+02  -1.0000000E+00   9.3580000E-02
       11   -1    0    0    0    0  0.00000000000E+00  0.00000000000E+00  2.46038861250E+02  2.46038861250E+02  0.00000000000E+00  0.0000E+00  9.0
      -11   -1    0    0    0    0  0.00000000000E+00  0.00000000000E+00 -2.50000000000E+02  2.50000000000E+02  0.00000000000E+00  0.0000E+00  9.0
  3000025    2    1    2    0    0  4.47240379609E+01  1.81450109156E+02  2.91586999066E+01  2.47730809686E+02  1.59987320132E+02  1.9327E-12  9.0
 -3000025    2    1    2    0    0 -4.47240379609E+01 -1.81450109156E+02 -3.31198386606E+01  2.48308051567E+02  1.60111158498E+02  1.6147E-13  9.0
        4    1    3    3  500    0 -3.02729295384E+01  6.76088342726E+01 -2.48504994216E+01  7.81479851566E+01  1.46817165330E+00  0.0000E+00  9.0
       -3    1    3    3    0  500  2.15319596113E+01  1.43252841574E+01  2.96951836687E+01  3.93787123204E+01  2.00000000000E-01  0.0000E+00  9.0
  3000022    1    3    3    0    0  5.34650078870E+01  9.95159907266E+01  2.43140156595E+01  1.30204112209E+02  6.00000000000E+01  0.0000E+00  9.0
       -2    1    4    4    0  504 -2.78719317340E+01 -3.59458458027E+01 -5.07705104998E+01  6.81659237043E+01  3.00000000000E-03  0.0000E+00  9.0
        1    1    4    4  504    0  2.88516677401E+01 -4.72712201359E+01  3.57061172231E+00  5.54953716772E+01  5.00000000000E-03  0.0000E+00  9.0
  3000022    1    4    4    0    0 -4.57037739670E+01 -9.82330432169E+01  1.40800601169E+01  1.24646756185E+02  6.00000000000E+01  0.0000E+00  9.0
</event>
<event>
10    1   3.4312288E-02   4.9990000E+02  -1.0000000E+00   9.3490000E-02
       11   -1    0    0    0    0  0.00000000000E+00  0.00000000000E+00  2.49923829110E+02  2.49923829110E+02  0.00000000000E+00  0.0000E+00  9.0
      -11   -1    0    0    0    0  0.00000000000E+00  0.00000000000E+00 -2.50000000000E+02  2.50000000000E+02  0.00000000000E+00  0.0000E+00  9.0
  3000025    2    1    2    0    0 -1.67764889064E+02  6.88718132293E+01  6.31490813122E+01  2.49996326766E+02  1.60068648604E+02  1.8379E-12  9.0
 -3000025    2    1    2    0    0  1.67764889064E+02 -6.88718132293E+01 -6.32252522032E+01  2.49927502344E+02  1.59931045302E+02  1.4035E-13  9.0
        2    1    3    3  500    0 -3.22508520850E+01 -1.60146361946E+01  4.32984414043E+01  5.63146612322E+01  3.00000000000E-03  0.0000E+00  9.0
       -1    1    3    3    0  500 -9.23899708788E+01  5.43169562385E+01  3.40799015672E+01  1.12461896524E+02  5.00000000000E-03  0.0000E+00  9.0
  3000022    1    3    3    0    0 -4.31240661009E+01  3.05694931848E+01 -1.42292616594E+01  8.12197690099E+01  6.00000000000E+01  0.0000E+00  9.0
       -4    1    4    4    0  504  7.81216911929E+01  6.22480159727E+00 -6.56240797627E+01  1.02227306345E+02  1.46817165330E+00  0.0000E+00  9.0
        3    1    4    4  504    0  4.25983978387E+00 -3.55673341731E+01 -3.21882616147E+00  3.59664056728E+01  2.00000000000E-01  0.0000E+00  9.0
  3000022    1    4    4    0    0  8.53833580877E+01 -3.95292806539E+01  5.61765372107E+00  1.11733790326E+02  6.00000000000E+01  0.0000E+00  9.0
</event>
<event>
10    1   3.4312288E-02   4.6430000E+02  -1.0000000E+00   9.4320000E-02
       11   -1    0    0    0    0  0.00000000000E+00  0.00000000000E+00  2.15564881980E+02  2.15564881980E+02  0.00000000000E+00  0.0000E+00  9.0
      -11   -1    0    0    0    0  0.00000000000E+00  0.00000000000E+00 -2.49989841850E+02  2.49989841850E+02  0.00000000000E+00  0.0000E+00  9.0
  3000025    2    1    2    0    0 -1.02317149184E+02 -4.11558268189E+01  1.10122201258E+02  2.23362815207E+02  1.60004521526E+02  1.1014E-13  9.0
 -3000025    2    1    2    0    0  1.02317149184E+02  4.11558268189E+01 -1.44547161128E+02  2.42191908616E+02  1.60001367840E+02  3.9361E-13  9.0
        4    1    3    3  500    0  2.14751609410E+01 -8.97660140903E+00  3.64964219454E+01  4.33117334347E+01  1.46817165330E+00  0.0000E+00  9.0
       -3    1    3    3    0  500 -6.17969351711E+01 -4.54999581243E+01  3.96112841314E+01  8.63608778116E+01  2.00000000000E-01  0.0000E+00  9.0
  3000022    1    3    3    0    0 -6.19953749535E+01  1.33207327143E+01  3.40144951823E+01  9.36902039606E+01  6.00000000000E+01  0.0000E+00  9.0
       -2    1    4    4    0  504 -8.27546675092E+00 -1.62052687980E+01 -5.69302373869E+01  5.97674328099E+01  3.00000000000E-03  0.0000E+00  9.0
        1    1    4    4  504    0  7.27699806595E+01  1.27830436702E+01 -5.66860647305E+01  9.31245738261E+01  5.00000000000E-03  0.0000E+00  9.0
  3000022    1    4    4    0    0  3.78226352745E+01  4.45780519468E+01 -3.09308590106E+01  8.92999019799E+01  6.00000000000E+01  0.0000E+00  9.0
</event>
<event>
10    1   3.4312288E-02   4.6740000E+02  -1.0000000E+00   9.4240000E-02
       11   -1    0    0    0    0  0.00000000000E+00  0.00000000000E+00  2.50000000000E+02  2.50000000000E+02  0.00000000000E+00  0.0000E+00  9.0
      -11   -1    0    0    0    0  0.00000000000E+00  0.00000000000E+00 -2.18473841140E+02  2.18473841140E+02  0.00000000000E+00  0.0000E+00  9.0
  3000025    2    1    2    0    0 -1.32045617699E+02  7.14913350970E+01 -6.46714838145E+01  2.28754788214E+02  1.59997800499E+02  5.6539E-13  9.0
 -3000025    2    1    2    0    0  1.32045617699E+02 -7.14913350970E+01  9.61976426775E+01  2.39719052919E+02  1.60200442347E+02  4.4768E-12  9.0
        2    1    3    3  500    0 -2.43884052257E+01  2.61713533312E+01 -1.71639517110E+01  3.96778942483E+01  3.00000000000E-03  0.0000E+00  9.0
       -1    1    3    3    0  500 -8.96812137292E+01  6.99701109415E+01 -4.30388616936E+01  1.21617762527E+02  5.00000000000E-03  0.0000E+00  9.0
  3000022    1    3    3    0    0 -1.79759987440E+01 -2.46501291758E+01 -4.46867040977E+00  6.74591314387E+01  6.00000000000E+01  0.0000E+00  9.0
       -4    1    4    4    0  504 -5.77940120949E+00  1.11353470999E+00 -1.02588598542E+01  1.19181026762E+01  1.46817165330E+00  0.0000E+00  9.0
        3    1    4    4  504    0  1.21930565537E+02 -5.73895279435E+01  5.42149808731E+01  1.45258131892E+02  2.00000000000E-01  0.0000E+00  9.0
  3000022    1    4    4    0    0  1.58944533716E+01 -1.52153418635E+01  5.22415216582E+01  8.25428183501E+01  6.00000000000E+01  0.0000E+00  9.0
</event>
<event>
10    1   3.4312288E-02   4.8870000E+02  -1.0000000E+00   9.3740000E-02
       11   -1    0    0    0    0  0.00000000000E+00  0.00000000000E+00  2.49999979610E+02  2.49999979610E+02  0.00000000000E+00  0.0000E+00  9.0
      -11   -1    0    0    0    0  0.00000000000E+00  0.00000000000E+00 -2.38852647540E+02  2.38852647540E+02  0.00000000000E+00  0.0000E+00  9.0
  3000025    2    1    2    0    0 -2.69737022177E+01 -1.79471220033E+02  4.01208539495E+01  2.45259228951E+02  1.60015333742E+02  1.3153E-12  9.0
 -3000025    2    1    2    0    0  2.69737022177E+01  1.79471220033E+02 -2.89735218755E+01  2.43593398198E+02  1.59877388160E+02  2.8179E-12  9.0
        4    1    3    3  500    0 -5.66582855436E+01 -3.95183531095E+01 -6.07128488902E+00  6.93604900605E+01  1.46817165330E+00  0.0000E+00  9.0
       -3    1    3    3    0  500  1.12359168476E+01 -3.57937642311E+01  3.89377615563E+01  5.40705896052E+01  2.00000000000E-01  0.0000E+00  9.0
  3000022    1    3    3    0    0  1.84486664783E+01 -1.04159102692E+02  7.25437728219E+00  1.21828149285E+02  6.00000000000E+01  0.0000E+00  9.0
       -4    1    4    4    0  504  5.23572927646E+01  1.11094680318E+02 -4.67528237575E+01  1.31420303446E+02  1.46817165330E+00  0.0000E+00  9.0
        3    1    4    4  504    0 -2.34117023113E+01  3.48059660678E+01  5.55335041542E+00  4.23136240455E+01  2.00000000000E-01  0.0000E+00  9.0
  3000022    1    4    4    0    0 -1.97188823660E+00  3.35705736467E+01  1.22259514656E+01  6.98594707067E+01  6.00000000000E+01  0.0000E+00  9.0
</event>
<event>
10    1   3.4312288E-02   5.0000000E+02  -1.0000000E+00   9.3490000E-02
       11   -1    0    0    0    0  0.00000000000E+00  0.00000000000E+00  2.49999997650E+02  2.49999997650E+02  0.00000000000E+00  0.0000E+00  9.0
      -11   -1    0    0    0    0  0.00000000000E+00  0.00000000000E+00 -2.49999998030E+02  2.49999998030E+02  0.00000000000E+00  0.0000E+00  9.0
  3000025    2    1    2    0    0 -1.73441532483E+02  6.28662510433E+00 -8.22684855454E+01  2.49996225749E+02  1.60026630063E+02  7.3317E-13  9.0
 -3000025    2    1    2    0    0  1.73441532483E+02 -6.28662510433E+00  8.22684851604E+01  2.50003769934E+02  1.60038415655E+02  7.4168E-13  9.0
        2    1    3    3  500    0 -3.87238220454E+01 -1.64972998484E+01 -7.63992848139E+01  8.72269799154E+01  3.00000000000E-03  0.0000E+00  9.0
       -1    1    3    3    0  500 -6.67874488714E+01 -6.87615495529E+00  1.11904257947E+00  6.71498109827E+01  5.00000000000E-03  0.0000E+00  9.0
  3000022    1    3    3    0    0 -6.79302615646E+01  2.96600799075E+01 -6.98824331076E+00  9.56194348494E+01  6.00000000000E+01  0.0000E+00  9.0
      -14    1    4    4    0    0  7.58210976443E+01 -3.04606692730E+01  1.32340330040E+01  8.27757866172E+01  0.00000000000E+00  0.0000E+00  9.0
       13    1    4    4    0    0  9.15635390582E+00 -2.25426941335E+00  5.54921122919E+01  5.62877095514E+01  1.05700000000E-01  0.0000E+00  9.0
  3000022    1    4    4    0    0  8.84640809328E+01  2.64283135820E+01  1.35423398645E+01  1.10940273765E+02  6.00000000000E+01  0.0000E+00  9.0
</event>
<event>
10    1   3.4312288E-02   4.9770000E+02  -1.0000000E+00   9.3540000E-02
       11   -1    0    0    0    0  0.00000000000E+00  0.00000000000E+00  2.49831528270E+02  2.49831528270E+02  0.00000000000E+00  0.0000E+00  9.0
      -11   -1    0    0    0    0  0.00000000000E+00  0.00000000000E+00 -2.47900169560E+02  2.47900169560E+02  0.00000000000E+00  0.0000E+00  9.0
  3000025    2    1    2    0    0  6.57755685691E+01 -6.37283519983E+01 -1.66241458624E+02  2.48183310722E+02  1.59909364599E+02  7.1392E-14  9.0
 -3000025    2    1    2    0    0 -6.57755685691E+01  6.37283519983E+01  1.68172817334E+02  2.49548387112E+02  1.60014289209E+02  4.8626E-13  9.0
        4    1    3    3  500    0  1.96873508576E+01  1.92272309619E+01 -6.69771289526E+01  7.24249233689E+01  1.46817165330E+00  0.0000E+00  9.0
       -3    1    3    3    0  500  5.19581605749E+01 -3.17035414184E+01 -2.08003262007E+01  6.43230795193E+01  2.00000000000E-01  0.0000E+00  9.0
  3000022    1    3    3    0    0 -5.86994286285E+00 -5.12520415419E+01 -7.84640034715E+01  1.11435307835E+02  6.00000000000E+01  0.0000E+00  9.0
       -4    1    4    4    0  504  2.47528348106E+01 -1.37481463556E+00  2.79789372273E+01  3.74108193283E+01  1.46817165330E+00  0.0000E+00  9.0
        3    1    4    4  504    0 -6.27998312780E+01  6.37523582350E-01  3.39912412503E+01  7.14119718716E+01  2.00000000000E-01  0.0000E+00  9.0
  3000022    1    4    4    0    0 -2.77285721015E+01  6.44656430504E+01  1.06202638856E+02  1.40725595911E+02  6.00000000000E+01  0.0000E+00  9.0
</event>
<event>
10    1   3.4312288E-02   4.7330000E+02  -1.0000000E+00   9.4100000E-02
       11   -1    0    0    0    0  0.00000000000E+00  0.00000000000E+00  2.24005122190E+02  2.24005122190E+02  0.00000000000E+00  0.0000E+00  9.0
      -11   -1    0    0    0    0  0.00000000000E+00  0.00000000000E+00 -2.49989004090E+02  2.49989004090E+02  0.00000000000E+00  0.0000E+00  9.0
  3000025    2    1    2    0    0  2.34701274721E+01  1.72601398454E+02 -5.16918938458E+00  2.36511115586E+02  1.59902150220E+02  1.2070E-12  9.0
 -3000025    2    1    2    0    0 -2.34701274721E+01 -1.72601398454E+02 -2.08146925153E+01  2.37483010698E+02  1.60071356943E+02  1.2956E-12  9.0
       14    1    3    3    0    0 -2.59499420616E+01  4.89245111569E+01  4.70547074001E+00  5.55801110095E+01  0.00000000000E+00  0.0000E+00  9.0
      -13    1    3    3    0    0  5.03021024547E+01  8.26997635054E+01 -3.66346620413E+01  1.03497159529E+02  1.05700000000E-01  0.0000E+00  9.0
  3000022    1    3    3    0    0 -8.82032920663E-01  4.09771237920E+01  2.67600019165E+01  7.74338450479E+01  6.00000000000E+01  0.0000E+00  9.0
       -4    1    4    4    0  500 -3.46783734653E+01 -8.18293456403E+01 -4.00130383330E+01  9.74773315124E+01  1.46817165330E+00  0.0000E+00  9.0
        3    1    4    4  500    0 -1.11674499569E+01  8.53701440673E+00  1.66796855741E+01  2.18138594561E+01  2.00000000000E-01  0.0000E+00  9.0
  3000022    1    4    4    0    0  2.23756959497E+01 -9.93090672207E+01  2.51866024360E+00  1.18191819729E+02  6.00000000000E+01  0.0000E+00  9.0
</event>
<event>
10    1   3.4312288E-02   4.8770000E+02  -1.0000000E+00   9.3770000E-02
       11   -1    0    0    0    0  0.00000000000E+00  0.00000000000E+00  2.43918048980E+02  2.43918048980E+02  0.00000000000E+00  0.0000E+00  9.0
      -11   -1    0    0    0    0  0.00000000000E+00  0.00000000000E+00 -2.43759525300E+02  2.43759525300E+02  0.00000000000E+00  0.0000E+00  9.0
  3000025    2    1    2    0    0  3.36854520311E+01 -1.73798964822E+02 -4.94073790731E+01  2.43927100981E+02  1.60370045938E+02  6.4282E-13  9.0
 -3000025    2    1    2    0    0 -3.36854520311E+01  1.73798964822E+02  4.95659027511E+01  2.43750473304E+02  1.60052256055E+02  2.9510E-12  9.0
        4    1    3    3  500    0  5.45147811082E+01 -4.33579135061E+01 -1.52629358672E+01  7.13223861222E+01  1.46817165330E+00  0.0000E+00  9.0
       -3    1    3    3    0  500 -1.68066863803E+01 -6.73444706667E+00  1.79742665588E+01  2.55133640022E+01  2.00000000000E-01  0.0000E+00  9.0
  3000022    1    3    3    0    0 -4.02264269683E+00 -1.23706604249E+02 -5.21187097641E+01  1.47091350856E+02  6.00000000000E+01  0.0000E+00  9.0
      -14    1    4    4    0    0 -1.97192938102E+01  8.57496098083E+01  4.71760309260E+01  9.98369872571E+01  0.00000000000E+00  0.0000E+00  9.0
       13    1    4    4    0    0 -4.57032868188E+00  5.82764943729E+01 -3.34692672177E+01  6.73590433515E+01  1.05700000000E-01  0.0000E+00  9.0
  3000022    1    4    4    0    0 -9.39582953901E+00  2.97728606415E+01  3.58591390428E+01  7.65544426954E+01  6.00000000000E+01  0.0000E+00  9.0
</event>
<event>
10    1   3.4312288E-02   4.6480000E+02  -1.0000000E+00   9.4300000E-02
       11   -1    0    0    0    0  0.00000000000E+00  0.00000000000E+00  2.50000000000E+02  2.50000000000E+02  0.00000000000E+00  0.0000E+00  9.0
      -11   -1    0    0    0    0  0.00000000000E+00  0.00000000000E+00 -2.16085144940E+02  2.16085144940E+02  0.00000000000E+00  0.0000E+00  9.0
  3000025    2    1    2    0    0  5.09298084303E+01 -1.59063380845E+02 -6.66004542904E+00  2.31357495143E+02  1.59959150538E+02  1.1019E-12  9.0
 -3000025    2    1    2    0    0 -5.09298084303E+01  1.59063380845E+02  4.05749004873E+01  2.34727649793E+02  1.59861635533E+02  5.8828E-12  9.0
        2    1    3    3  500    0 -1.90645933668E+01  6.23179315062E+00  4.64083542431E+00  2.05871641697E+01  3.00000000000E-03  0.0000E+00  9.0
       -1    1    3    3    0  500  6.11397233941E+01 -5.34468325484E+01 -1.86607131686E+01  8.33237776816E+01  5.00000000000E-03  0.0000E+00  9.0
  3000022    1    3    3    0    0  8.85467840303E+00 -1.11848341448E+02  7.35983231471E+00  1.27446553292E+02  6.00000000000E+01  0.0000E+00  9.0
       -2    1    4    4    0  504 -1.90534802095E+01  3.28832500130E-01 -2.21924101341E+01  2.92514327080E+01  3.00000000000E-03  0.0000E+00  9.0
        1    1    4    4  504    0  1.58880092589E+01  8.90814026202E+01  1.63482275302E+01  9.19521054646E+01  5.00000000000E-03  0.0000E+00  9.0
  3000022    1    4    4    0    0 -4.77643374798E+01  6.96531457243E+01  4.64190830907E+01  1.13524111620E+02  6.00000000000E+01  0.0000E+00  9.0
</event>
<event>
10    1   3.4312288E-02   4.9850000E+02  -1.0000000E+00   9.3520000E-02
       11   -1    0    0    0    0  0.00000000000E+00  0.00000000000E+00  2.48525754870E+02  2.48525754870E+02  0.00000000000E+00  0.0000E+00  9.0
      -11   -1    0    0    0    0  0.00000000000E+00  0.00000000000E+00 -2.50000000000E+02  2.50000000000E+02  0.00000000000E+00  0.0000E+00  9.0
  3000025    2    1    2    0    0 -1.71773050656E+02  1.20262994933E+01  8.21859645307E+01  2.49030026117E+02  1.60033772468E+02  1.6132E-13  9.0
 -3000025    2    1    2    0    0  1.71773050656E+02 -1.20262994933E+01 -8.36602096627E+01  2.49495728757E+02  1.59995234854E+02  3.1843E-13  9.0
        4    1    3    3  500    0  1.28571681111E+01  1.25630022528E+01  1.19652044072E+01  2.16438777014E+01  1.46817165330E+00  0.0000E+00  9.0
       -3    1    3    3    0  500 -8.99967940889E+01  4.47400251759E+00 -8.27012325264E+00  9.04868751998E+01  2.00000000000E-01  0.0000E+00  9.0
  3000022    1    3    3    0    0 -9.46334246780E+01 -5.01070527656E+00  7.84908833757E+01  1.36899273215E+02  6.00000000000E+01  0.0000E+00  9.0
      -14    1    4    4    0    0 -3.08013023089E+00 -1.49881656155E+01 -3.36140252149E+01  3.69328444871E+01  0.00000000000E+00  0.0000E+00  9.0
       13    1    4    4    0    0  5.07285874321E+01  1.77248202102E+01  1.98533447625E+01  5.72863448397E+01  1.05700000000E-01  0.0000E+00  9.0
  3000022    1    4    4    0    0  1.24124593455E+02 -1.47629540879E+01 -6.98995292092E+01  1.55276539430E+02  6.00000000000E+01  0.0000E+00  9.0
</event>
<event>
10    1   3.4312288E-02   4.9940000E+02  -1.0000000E+00   9.3500000E-02
       11   -1    0    0    0    0  0.00000000000E+00  0.00000000000E+00  2.49690717320E+02  2.49690717320E+02  0.00000000000E+00  0.0000E+00  9.0
      -11   -1    0    0    0    0  0.00000000000E+00  0.00000000000E+00 -2.49677896880E+02  2.49677896880E+02  0.00000000000E+00  0.0000E+00  9.0
  3000025    2    1    2    0    0 -2.84457653735E+01  1.78199213398E+02  6.45809173828E+01  2.49645134881E+02  1.59962111941E+02  1.5958E-13  9.0
 -3000025    2    1    2    0    0  2.84457653735E+01 -1.78199213398E+02 -6.45680969418E+01  2.49723479309E+02  1.60089524179E+02  7.0216E-13  9.0
        4    1    3    3  500    0  2.69419100649E+01  1.03608919157E+02  3.83842133745E+01  1.13737320222E+02  1.46817165330E+00  0.0000E+00  9.0
       -3    1    3    3    0  500 -4.46568693953E+01  5.10236428094E+01  9.58673900346E+00  6.84806080175E+01  2.00000000000E-01  0.0000E+00  9.0
  3000022    1    3    3    0    0 -1.07308060424E+01  2.35666514308E+01  1.66099650051E+01  6.74272066413E+01  6.00000000000E+01  0.0000E+00  9.0
       -4    1    4    4    0  504  4.08531863978E+01 -2.16818035942E+01  2.21659075550E+01  5.13085415081E+01  1.46817165330E+00  0.0000E+00  9.0
        3    1    4    4  504    0 -2.24516441624E+01 -4.98403919324E+01 -1.72780671662E+01  5.73298578279E+01  2.00000000000E-01  0.0000E+00  9.0
  3000022    1    4    4    0    0  1.00442231378E+01 -1.06677017870E+02 -6.94559373312E+01  1.41085079972E+02  6.00000000000E+01  0.0000E+00  9.0
</event>
<event>
10    1   3.4312288E-02   4.9640000E+02  -1.0000000E+00   9.3570000E-02
       11   -1    0    0    0    0  0.00000000000E+00  0.00000000000E+00  2.47344663280E+02  2.47344663280E+02  0.00000000000E+00  0.0000E+00  9.0
      -11   -1    0    0    0    0  0.00000000000E+00  0.00000000000E+00 -2.49089074960E+02  2.49089074960E+02  0.00000000000E+00  0.0000E+00  9.0
  3000025    2    1    2    0    0  1.71295681882E+02 -2.05636276848E+01  7.83709263181E+01  2.47967795977E+02  1.59940464970E+02  2.9559E-12  9.0
 -3000025    2    1    2    0    0 -1.71295681882E+02  2.05636276848E+01 -8.01153379991E+01  2.48465942264E+02  1.59849252946E+02  3.1994E-13  9.0
        4    1    3    3  500    0  9.80194402024E+01 -1.95287140386E+01  3.26745688225E+01  1.05161610416E+02  1.46817165330E+00  0.0000E+00  9.0
       -3    1    3    3    0  500  4.73776127506E+00 -8.59500734471E+00  5.03363262643E+01  5.12845617602E+01  2.00000000000E-01  0.0000E+00  9.0
  3000022    1    3    3    0    0  6.85384804036E+01  7.56009369850E+00 -4.63996876882E+00  9.15216237998E+01  6.00000000000E+01  0.0000E+00  9.0
       -4    1    4    4    0  504 -8.16250492390E+01  2.14893199429E+00 -7.91616055753E+01  1.13736458083E+02  1.46817165330E+00  0.0000E+00  9.0
        3    1    4    4  504    0 -4.86602611689E+00 -1.98250780806E+01  1.13366528629E+01  2.33510519936E+01  2.00000000000E-01  0.0000E+00  9.0
  3000022    1    4    4    0    0 -8.48046065260E+01  3.82397737705E+01 -1.22903852866E+01  1.11378432187E+02  6.00000000000E+01  0.0000E+00  9.0
</event>
<event>
10    1   3.4312288E-02   4.8790000E+02  -1.0000000E+00   9.3760000E-02
       11   -1    0    0    0    0  0.00000000000E+00  0.00000000000E+00  2.38080852810E+02  2.38080852810E+02  0.00000000000E+00  0.0000E+00  9.0
      -11   -1    0    0    0    0  0.00000000000E+00  0.00000000000E+00 -2.49985740360E+02  2.49985740360E+02  0.00000000000E+00  0.0000E+00  9.0
  3000025    2    1    2    0    0  1.41084224899E+02 -9.69813539315E+00  1.12079199710E+02  2.41140685749E+02  1.59963342583E+02  3.9012E-13  9.0
 -3000025    2    1    2    0    0 -1.41084224899E+02  9.69813539315E+00 -1.23984087260E+02  2.46925907407E+02  1.60004804646E+02  8.3411E-13  9.0
        2    1    3    3  500    0  2.14279846505E+01  2.65492332282E+01  2.11038399434E+01  4.01172329622E+01  3.00000000000E-03  0.0000E+00  9.0
       -1    1    3    3    0  500  7.69303766445E+01 -6.15847721457E+01  6.82885828696E+01  1.19892858779E+02  5.00000000000E-03  0.0000E+00  9.0
  3000022    1    3    3    0    0  4.27258636045E+01  2.53374035243E+01  2.26867768969E+01  8.11305940078E+01  6.00000000000E+01  0.0000E+00  9.0
       -2    1    4    4    0  504 -2.47060144615E+01 -3.63174274840E+01 -1.48151086547E+01  4.63554758694E+01  3.00000000000E-03  0.0000E+00  9.0
        1    1    4    4  504    0 -7.72903984226E+01  2.32866561483E+01 -9.40379261101E+01  1.23932262204E+02  5.00000000000E-03  0.0000E+00  9.0
  3000022    1    4    4    0    0 -3.90878120153E+01  2.27289067299E+01 -1.51310524949E+01  7.66381693341E+01  6.00000000000E+01  0.0000E+00  9.0
</event>
<event>
10    1   3.4312288E-02   4.9460000E+02  -1.0000000E+00   9.3610000E-02
       11   -1    0    0    0    0  0.00000000000E+00  0.00000000000E+00  2.49996415970E+02  2.49996415970E+02  0.00000000000E+00  0.0000E+00  9.0
      -11   -1    0    0    0    0  0.00000000000E+00  0.00000000000E+00 -2.44625290360E+02  2.44625290360E+02  0.00000000000E+00  0.0000E+00  9.0
  3000025    2    1    2    0    0  1.55821484487E+02 -2.50511311306E+01 -1.00573704374E+02  2.46146982001E+02  1.59891752565E+02  1.6458E-12  9.0
 -3000025    2    1    2    0    0 -1.55821484487E+02  2.50511311306E+01  1.05944829974E+02  2.48474724326E+02  1.60023396514E+02  6.4039E-13  9.0
        2    1    3    3  500    0  3.55185307453E+01 -6.21283469098E+01 -3.39639138024E+01  7.92151814101E+01  3.00000000000E-03  0.0000E+00  9.0
       -1    1    3    3    0  500  5.62095587695E+01  1.42318697169E+01 -7.05350502241E+00  5.84107230807E+01  5.00000000000E-03  0.0000E+00  9.0
  3000022    1    3    3    0    0  6.40933949733E+01  2.28453460613E+01 -5.95562855488E+01  1.08521077511E+02  6.00000000000E+01  0.0000E+00  9.0
       -4    1    4    4    0  504 -4.06373201817E+01 -2.85827195642E+01  4.71708928286E+01  6.85245379954E+01  1.46817165330E+00  0.0000E+00  9.0
        3    1    4    4  504    0 -1.42430883636E+01  4.56488139938E+01  3.65119817231E+01  6.01651443488E+01  2.00000000000E-01  0.0000E+00  9.0
  3000022    1    4    4    0    0 -1.00941075941E+02  7.98503670063E+00  2.22619554230E+01  1.19785041981E+02  6.00000000000E+01  0.0000E+00  9.0
</event>
<event>
10    1   3.4312288E-02   4.9620000E+02  -1.0000000E+00   9.3580000E-02
       11   -1    0    0    0    0  0.00000000000E+00  0.00000000000E+00  2.46183557710E+02  2.46183557710E+02  0.00000000000E+00  0.0000E+00  9.0
      -11   -1    0    0    0    0  0.00000000000E+00  0.00000000000E+00 -2.49999999970E+02  2.49999999970E+02  0.00000000000E+00  0.0000E+00  9.0
  3000025    2    1    2    0    0  3.54810252482E+01 -1.77324714006E+02  5.48959288563E+01  2.47637616175E+02  1.60024587454E+02  2.8202E-13  9.0
 -3000025    2    1    2    0    0 -3.54810252482E+01  1.77324714006E+02 -5.87123711183E+01  2.48545941504E+02  1.60078059601E+02  6.7034E-13  9.0
        2    1    3    3  500    0  1.60576336648E+01  3.74849876169E-01 -1.06276597396E+01  1.92596799528E+01  3.00000000000E-03  0.0000E+00  9.0
       -1    1    3    3    0  500  4.05301456051E+01 -1.29603212856E+02  5.99622797730E+01  1.48442448464E+02  5.00000000000E-03  0.0000E+00  9.0
  3000022    1    3    3    0    0 -2.11067540216E+01 -4.80963510276E+01  5.56130882307E+00  7.99354877593E+01  6.00000000000E+01  0.0000E+00  9.0
       -4    1    4    4    0  504 -3.08210889256E+01  1.50163542266E+01  2.36491110124E+01  4.16757291058E+01  1.46817165330E+00  0.0000E+00  9.0
        3    1    4    4  504    0  2.86611028480E+01  5.26851785749E+01 -1.94946973361E+01  6.30656014176E+01  2.00000000000E-01  0.0000E+00  9.0
  3000022    1    4    4    0    0 -3.33210391706E+01  1.09623181204E+02 -6.28667847946E+01  1.43804610980E+02  6.00000000000E+01  0.0000E+00  9.0
</event>
<event>
10    1   3.4312288E-02   4.5610000E+02  -1.0000000E+00   9.4520000E-02
       11   -1    0    0    0    0  0.00000000000E+00  0.00000000000E+00  2.15024365410E+02  2.15024365410E+02  0.00000000000E+00  0.0000E+00  9.0
      -11   -1    0    0    0    0  0.00000000000E+00  0.00000000000E+00 -2.41869372610E+02  2.41869372610E+02  0.00000000000E+00  0.0000E+00  9.0
  3000025    2    1    2    0    0 -7.69063645639E+01 -1.03752887328E+02  8.54657725781E+01  2.22700059835E+02  1.60036457812E+02  1.0423E-12  9.0
 -3000025    2    1    2    0    0  7.69063645639E+01  1.03752887328E+02 -1.12310779783E+02  2.34193678195E+02  1.59855300543E+02  1.4215E-13  9.0
        4    1    3    3  500    0 -4.86213900228E+01 -4.34343179141E+01  8.95205102776E+01  1.10754940426E+02  1.46817165330E+00  0.0000E+00  9.0
       -3    1    3    3    0  500 -3.06166077272E+01 -3.05261786107E+01 -1.08381254932E+01  4.45727406999E+01  2.00000000000E-01  0.0000E+00  9.0
  3000022    1    3    3    0    0  2.33163318504E+00 -2.97923908029E+01  6.78338779385E+00  6.73723787098E+01  6.00000000000E+01  0.0000E+00  9.0
       -4    1    4    4    0  504  2.56077378800E+01  1.95006994472E+01  1.95868614809E+01  3.77072166691E+01  1.46817165330E+00  0.0000E+00  9.0
        3    1    4    4  504    0 -1.93833300998E+01  2.02467652012E+01 -4.95829070326E+01  5.69574372376E+01  2.00000000000E-01  0.0000E+00  9.0
  3000022    1    4    4    0    0  7.06819567844E+01  6.40054226796E+01 -8.23147342327E+01  1.39529024289E+02  6.00000000000E+01  0.0000E+00  9.0
</event>
<event>
10    1   3.4312288E-02   5.0000000E+02  -1.0000000E+00   9.3490000E-02
       11   -1    0    0    0    0  0.00000000000E+00  0.00000000000E+00  2.50000000000E+02  2.50000000000E+02  0.00000000000E+00  0.0000E+00  9.0
      -11   -1    0    0    0    0  0.00000000000E+00  0.00000000000E+00 -2.49999985330E+02  2.49999985330E+02  0.00000000000E+00  0.0000E+00  9.0
  3000025    2    1    2    0    0 -1.13025789711E+02  1.01276412023E+02  1.18405560858E+02  2.50056861690E+02  1.59614587253E+02  5.0230E-13  9.0
 -3000025    2    1    2    0    0  1.13025789711E+02 -1.01276412023E+02 -1.18405546188E+02  2.49943123642E+02  1.59436353808E+02  2.4544E-12  9.0
        2    1    3    3  500    0  2.33582477720E-01 -1.91345746149E+01  8.02406461064E+00  2.07502320069E+01  3.00000000000E-03  0.0000E+00  9.0
       -1    1    3    3    0  500 -6.98756324385E+01  6.77360087152E+01  1.65987426748E+01  9.87232959779E+01  5.00000000000E-03  0.0000E+00  9.0
  3000022    1    3    3    0    0 -4.33837397503E+01  5.26749779232E+01  9.37827535730E+01  1.30583333706E+02  6.00000000000E+01  0.0000E+00  9.0
       -2    1    4    4    0  504  6.38897067779E+01 -1.37070100330E+01 -4.22773573899E+01  7.78277053053E+01  3.00000000000E-03  0.0000E+00  9.0
        1    1    4    4  504    0 -2.80191201892E+00 -7.09641430385E+01 -5.02894065944E+01  8.70217487113E+01  5.00000000000E-03  0.0000E+00  9.0
  3000022    1    4    4    0    0  5.19379949519E+01 -1.66052589519E+01 -2.58387822031E+01  8.50936696249E+01  6.00000000000E+01  0.0000E+00  9.0
</event>
<event>
10    1   3.4312288E-02   4.8780000E+02  -1.0000000E+00   9.3760000E-02
       11   -1    0    0    0    0  0.00000000000E+00  0.00000000000E+00  2.44061775610E+02  2.44061775610E+02  0.00000000000E+00  0.0000E+00  9.0
      -11   -1    0    0    0    0  0.00000000000E+00  0.00000000000E+00 -2.43776236550E+02  2.43776236550E+02  0.00000000000E+00  0.0000E+00  9.0
  3000025    2    1    2    0    0  1.04079709865E+02  1.36308014582E+02 -6.68496784530E+01  2.43899053830E+02  1.60016899435E+02  3.7182E-12  9.0
 -3000025    2    1    2    0    0 -1.04079709865E+02 -1.36308014582E+02  6.71352175060E+01  2.43938958332E+02  1.59958173025E+02  5.3804E-13  9.0
        4    1    3    3  500    0  3.21501936260E+01  1.49526375840E+01  2.21747931636E+01  4.18460667299E+01  1.46817165330E+00  0.0000E+00  9.0
       -3    1    3    3    0  500  6.17001117584E+01  9.86493074469E+01 -5.97129023425E+01  1.30783257174E+02  2.00000000000E-01  0.0000E+00  9.0
  3000022    1    3    3    0    0  1.02294044818E+01  2.27060695517E+01 -2.93115692746E+01  7.12697299271E+01  6.00000000000E+01  0.0000E+00  9.0
       -2    1    4    4    0  504 -5.85013913525E+01 -3.06282996244E+01  4.77148659774E+01  8.14690982661E+01  3.00000000000E-03  0.0000E+00  9.0
        1    1    4    4  504    0 -1.44392491360E+01 -9.03332200032E+01  1.74072473534E+01  9.31213983850E+01  5.00000000000E-03  0.0000E+00  9.0
  3000022    1    4    4    0    0 -3.11390693768E+01 -1.53464949549E+01  2.01310417544E+00  6.93484616807E+01  6.00000000000E+01  0.0000E+00  9.0
</event>
<event>
10    1   3.4312288E-02   4.7210000E+02  -1.0000000E+00   9.4130000E-02
       11   -1    0    0    0    0  0.00000000000E+00  0.00000000000E+00  2.49989157580E+02  2.49989157580E+02  0.00000000000E+00  0.0000E+00  9.0
      -11   -1    0    0    0    0  0.00000000000E+00  0.00000000000E+00 -2.22856033600E+02  2.22856033600E+02  0.00000000000E+00  0.0000E+00  9.0
  3000025    2    1    2    0    0 -6.18490019862E+01  9.73256280088E+01 -1.16726399324E+02  2.29144955874E+02  1.59952435397E+02  2.4152E-12  9.0
 -3000025    2    1    2    0    0  6.18490019862E+01 -9.73256280088E+01  1.43859523304E+02  2.43700235316E+02  1.59363312384E+02  7.4827E-13  9.0
        4    1    3    3  500    0 -3.22905539499E+01  1.99110623232E+00  1.05808961858E+01  3.40698586807E+01  1.46817165330E+00  0.0000E+00  9.0
       -3    1    3    3    0  500 -1.76988647889E+01  8.14566728163E+01 -5.76853882875E+01  1.01371018457E+02  2.00000000000E-01  0.0000E+00  9.0
  3000022    1    3    3    0    0 -1.18595832465E+01  1.38778489601E+01 -6.96219072220E+01  9.37040787360E+01  6.00000000000E+01  0.0000E+00  9.0
       -2    1    4    4    0  504  3.83175812470E+01 -1.26544780686E+01  9.57021825201E+01  1.03861834164E+02  3.00000000000E-03  0.0000E+00  9.0
        1    1    4    4  504    0  3.44513932782E+01 -2.91618258648E+01  1.65856820229E+00  4.51670395317E+01  5.00000000000E-03  0.0000E+00  9.0
  3000022    1    4    4    0    0 -1.09199725380E+01 -5.55093240752E+01  4.64987725815E+01  9.46713616206E+01  6.00000000000E+01  0.0000E+00  9.0
</event>
<event>
10    1   3.4312288E-02   4.9250000E+02  -1.0000000E+00   9.3660000E-02
       11   -1    0    0    0    0  0.00000000000E+00  0.00000000000E+00  2.49999998720E+02  2.49999998720E+02  0.00000000000E+00  0.0000E+00  9.0
      -11   -1    0    0    0    0  0.00000000000E+00  0.00000000000E+00 -2.42541375470E+02  2.42541375470E+02  0.00000000000E+00  0.0000E+00  9.0
  3000025    2    1    2    0    0 -1.83737521320E+02 -3.25351099087E+01 -1.28139428620E+01  2.45880131398E+02  1.59608369977E+02  3.9877E-14  9.0
 -3000025    2    1    2    0    0  1.83737521320E+02  3.25351099087E+01  2.02725661030E+01  2.46661242788E+02  1.60039937639E+02  2.1793E-12  9.0
        4    1    3    3  500    0 -3.77334790936E+00 -9.65343856766E+00 -2.45050957131E+01  2.66473689984E+01  1.46817165330E+00  0.0000E+00  9.0
       -3    1    3    3    0  500 -1.28965068792E+02 -4.33039356723E+01  1.98162298181E+01  1.37477062732E+02  2.00000000000E-01  0.0000E+00  9.0
  3000022    1    3    3    0    0 -5.09991046185E+01  2.04222643316E+01 -8.12507696670E+00  8.17556996670E+01  6.00000000000E+01  0.0000E+00  9.0
      -14    1    4    4    0    0  7.99067544475E+01  9.60579923654E+00  1.28628743525E+01  8.15034620241E+01  0.00000000000E+00  0.0000E+00  9.0
       13    1    4    4    0    0  1.24705794081E+01 -2.01898726551E+01 -3.32262863934E+01  4.08306697054E+01  1.05700000000E-01  0.0000E+00  9.0
  3000022    1    4    4    0    0  9.13601874650E+01  4.31191833269E+01  4.06359781436E+01  1.24327111058E+02  6.00000000000E+01  0.0000E+00  9.0
</event>
<event>
10    1   3.4312288E-02   3.9940000E+02  -1.0000000E+00   9.6040000E-02
       11   -1    0    0    0    0  0.00000000000E+00  0.00000000000E+00  1.59574477810E+02  1.59574477810E+02  0.00000000000E+00  0.0000E+00  9.0
      -11   -1    0    0    0    0  0.00000000000E+00  0.00000000000E+00 -2.49937320500E+02  2.49937320500E+02  0.00000000000E+00  0.0000E+00  9.0
  3000025    2    1    2    0    0  1.10460715469E+02 -3.83911251876E+01 -1.52959149218E+01  1.98813966047E+02  1.60054927843E+02  5.7601E-13  9.0
 -3000025    2    1    2    0    0 -1.10460715469E+02  3.83911251876E+01 -7.50669277612E+01  2.10697832261E+02  1.58376402034E+02  6.0461E-13  9.0
        4    1    3    3  500    0 -1.15833684193E+01  3.93753550190E+00 -3.06713599882E+01  3.30539931218E+01  1.46817165330E+00  0.0000E+00  9.0
       -3    1    3    3    0  500  4.76801257959E+01  9.98192414004E+00  2.78529595122E+01  5.61147089366E+01  2.00000000000E-01  0.0000E+00  9.0
  3000022    1    3    3    0    0  7.43639580912E+01 -5.23105848295E+01 -1.24775144465E+01  1.09645263988E+02  6.00000000000E+01  0.0000E+00  9.0
       -4    1    4    4    0  504 -1.35973914798E+00  3.87573726754E+01 -2.39811444423E+01  4.56205397164E+01  1.46817165330E+00  0.0000E+00  9.0
        3    1    4    4  504    0 -7.58495033322E+01  5.47899789454E+00  5.09409051816E+00  7.62178216159E+01  2.00000000000E-01  0.0000E+00  9.0
  3000022    1    4    4    0    0 -3.32514729899E+01 -5.84524538239E+00 -5.61798738369E+01  8.88594709297E+01  6.00000000000E+01  0.0000E+00  9.0
</event>
<event>
10    1   3.4312288E-02   4.9780000E+02  -1.0000000E+00   9.3540000E-02
       11   -1    0    0    0    0  0.00000000000E+00  0.00000000000E+00  2.50000000000E+02  2.50000000000E+02  0.00000000000E+00  0.0000E+00  9.0
      -11   -1    0    0    0    0  0.00000000000E+00  0.00000000000E+00 -2.47836466410E+02  2.47836466410E+02  0.00000000000E+00  0.0000E+00  9.0
  3000025    2    1    2    0    0 -1.57498229647E+02  9.20307640093E+00  1.08221628067E+02  2.49441846677E+02  1.60059130121E+02  1.5300E-12  9.0
 -3000025    2    1    2    0    0  1.57498229647E+02 -9.20307640093E+00 -1.06058094467E+02  2.48394619732E+02  1.59878637575E+02  1.6402E-12  9.0
        2    1    3    3  500    0 -5.64068697403E+01  2.86315711872E+01  8.31567821569E+01  1.04482305919E+02  3.00000000000E-03  0.0000E+00  9.0
       -1    1    3    3    0  500 -1.76346582905E+01 -3.46330407682E+01  7.46850075071E+00  3.95753359347E+01  5.00000000000E-03  0.0000E+00  9.0
  3000022    1    3    3    0    0 -8.34567016156E+01  1.52045459819E+01  1.75963451588E+01  1.05384204822E+02  6.00000000000E+01  0.0000E+00  9.0
       -2    1    4    4    0  504  7.73505491880E+01  3.93780341388E+01 -6.38536014928E+01  1.07754440581E+02  3.00000000000E-03  0.0000E+00  9.0
        1    1    4    4  504    0  2.02362535444E+01 -3.39704473272E+01 -3.74628069210E+01  5.44698005919E+01  5.00000000000E-03  0.0000E+00  9.0
  3000022    1    4    4    0    0  5.99114269149E+01 -1.46106632125E+01 -4.74168605286E+00  8.61703785596E+01  6.00000000000E+01  0.0000E+00  9.0
</event>
<event>
10    1   3.4312288E-02   4.9520000E+02  -1.0000000E+00   9.3600000E-02
       11   -1    0    0    0    0  0.00000000000E+00  0.00000000000E+00  2.49999999860E+02  2.49999999860E+02  0.00000000000E+00  0.0000E+00  9.0
      -11   -1    0    0    0    0  0.00000000000E+00  0.00000000000E+00 -2.45236488780E+02  2.45236488780E+02  0.00000000000E+00  0.0000E+00  9.0
  3000025    2    1    2    0    0  1.76368154347E+02 -2.74412790868E+01  6.41424873666E+01  2.48159526444E+02  1.60031691280E+02  2.2523E-13  9.0
 -3000025    2    1    2    0    0 -1.76368154347E+02  2.74412790868E+01 -5.93789762816E+01  2.47076962189E+02  1.60194921127E+02  2.0174E-12  9.0
        2    1    3    3  500    0  1.11797538859E+02 -3.46166690709E+00  5.62832479039E+01  1.25213724632E+02  3.00000000000E-03  0.0000E+00  9.0
       -1    1    3    3    0  500 -1.10329113727E+01  1.27321461436E+01  1.01255011564E+01  1.96560035981E+01  5.00000000000E-03  0.0000E+00  9.0
  3000022    1    3    3    0    0  7.56035268609E+01 -3.67117583241E+01 -2.26626169387E+00  1.03289798214E+02  6.00000000000E+01  0.0000E+00  9.0
       -4    1    4    4    0  504 -6.67048853880E+01 -2.94401544219E+01 -2.67926301606E+01  7.76934037479E+01  1.46817165330E+00  0.0000E+00  9.0
        3    1    4    4  504    0  1.25171133147E+01  1.66573572034E+01  7.08219250076E+00  2.20077969219E+01  2.00000000000E-01  0.0000E+00  9.0
  3000022    1    4    4    0    0 -1.22180382273E+02  4.02240763053E+01 -3.96685386214E+01  1.47375761519E+02  6.00000000000E+01  0.0000E+00  9.0
</event>
<event>
10    1   3.4312288E-02   4.5640000E+02  -1.0000000E+00   9.4510000E-02
       11   -1    0    0    0    0  0.00000000000E+00  0.00000000000E+00  2.13233151960E+02  2.13233151960E+02  0.00000000000E+00  0.0000E+00  9.0
      -11   -1    0    0    0    0  0.00000000000E+00  0.00000000000E+00 -2.44260042990E+02  2.44260042990E+02  0.00000000000E+00  0.0000E+00  9.0
  3000025    2    1    2    0    0 -1.54099424098E+02  5.18304348072E+01 -2.56320554855E+01  2.29528248190E+02  1.59978710988E+02  5.4536E-13  9.0
 -3000025    2    1    2    0    0  1.54099424098E+02 -5.18304348072E+01 -5.39483554706E+00  2.27964946759E+02  1.59705623636E+02  1.1447E-13  9.0
        4    1    3    3  500    0 -7.11257521807E+01  7.45397710001E+00 -3.60584986758E+00  7.16211706072E+01  1.46817165330E+00  0.0000E+00  9.0
       -3    1    3    3    0  500  1.73253181763E+01  1.16396835889E+01  2.05411605625E+01  2.92852891605E+01  2.00000000000E-01  0.0000E+00  9.0
  3000022    1    3    3    0    0 -1.00298990093E+02  3.27367741183E+01 -4.25673661811E+01  1.28621788423E+02  6.00000000000E+01  0.0000E+00  9.0
       -2    1    4    4    0  504  2.04941985537E+00 -7.32579774664E+00  2.79994626953E+01  2.90144335563E+01  3.00000000000E-03  0.0000E+00  9.0
        1    1    4    4  504    0  8.10494813872E+01 -6.03806675550E+01 -2.59912625006E+01  1.04357027549E+02  5.00000000000E-03  0.0000E+00  9.0
  3000022    1    4    4    0    0  7.10005228550E+01  1.58760304943E+01 -7.40303574157E+00  9.45934856538E+01  6.00000000000E+01  0.0000E+00  9.0
</event>
<event>
10    1   3.4312288E-02   4.9910000E+02  -1.0000000E+00   9.3510000E-02
       11   -1    0    0    0    0  0.00000000000E+00  0.00000000000E+00  2.49999999760E+02  2.49999999760E+02  0.00000000000E+00  0.0000E+00  9.0
      -11   -1    0    0    0    0  0.00000000000E+00  0.00000000000E+00 -2.49097244620E+02  2.49097244620E+02  0.00000000000E+00  0.0000E+00  9.0
  3000025    2    1    2    0    0 -1.87769126290E+02 -1.46496718467E+01 -3.43859977595E+01  2.49511709966E+02  1.60005746444E+02  1.7765E-12  9.0
 -3000025    2    1    2    0    0  1.87769126290E+02  1.46496718467E+01  3.52887528965E+01  2.49585534406E+02  1.59924310943E+02  3.4720E-13  9.0
        4    1    3    3  500    0 -8.25395217484E+01  3.76667507813E+00  2.11286579416E+01  8.52967537836E+01  1.46817165330E+00  0.0000E+00  9.0
       -3    1    3    3    0  500 -1.25874456930E+00  2.33096073859E+01 -2.35724883803E+01  3.31756603975E+01  2.00000000000E-01  0.0000E+00  9.0
  3000022    1    3    3    0    0 -1.03970859974E+02 -4.17259543114E+01 -3.19421673208E+01  1.31039295786E+02  6.00000000000E+01  0.0000E+00  9.0
       -4    1    4    4    0  504  1.44445539215E+02 -1.18233003122E+00 -9.63205332887E+00  1.44778602296E+02  1.46817165330E+00  0.0000E+00  9.0
        3    1    4    4  504    0  1.63156278710E+01  2.07181265642E+01  2.38157770501E+01  3.55340923291E+01  2.00000000000E-01  0.0000E+00  9.0
  3000022    1    4    4    0    0  2.70079592044E+01 -4.88612468648E+00  2.11050291745E+01  6.92728397808E+01  6.00000000000E+01  0.0000E+00  9.0
</event>
<event>
10    1   3.4312288E-02   4.9570000E+02  -1.0000000E+00   9.3590000E-02
       11   -1    0    0    0    0  0.00000000000E+00  0.00000000000E+00  2.49983888580E+02  2.49983888580E+02  0.00000000000E+00  0.0000E+00  9.0
      -11   -1    0    0    0    0  0.00000000000E+00  0.00000000000E+00 -2.45756550820E+02  2.45756550820E+02  0.00000000000E+00  0.0000E+00  9.0
  3000025    2    1    2    0    0  1.24159124292E+02  4.45479467258E+01  1.37916393485E+02  2.49026562277E+02  1.59979028080E+02  3.1079E-13  9.0
 -3000025    2    1    2    0    0 -1.24159124292E+02 -4.45479467258E+01 -1.33689055725E+02  2.46713877116E+02  1.59984267473E+02  1.1616E-12  9.0
        2    1    3    3  500    0  2.66604390869E+01  3.51778713758E+01 -7.13422318833E+00  4.47119536180E+01  3.00000000000E-03  0.0000E+00  9.0
       -1    1    3    3    0  500  3.03883177282E+00 -2.01373506504E+01  5.19029635586E+01  5.57554036926E+01  5.00000000000E-03  0.0000E+00  9.0
  3000022    1    3    3    0    0  9.44598534317E+01  2.95074259996E+01  9.31476531143E+01  1.48559204966E+02  6.00000000000E+01  0.0000E+00  9.0
       -4    1    4    4    0  504 -7.23476959156E+01 -1.63339530283E+01 -5.43082778546E+01  9.19376511412E+01  1.46817165330E+00  0.0000E+00  9.0
        3    1    4    4  504    0  1.57400303368E+01  3.89161777013E+00 -5.28596791518E+01  5.52908575074E+01  2.00000000000E-01  0.0000E+00  9.0
  3000022    1    4    4    0    0 -6.75514587130E+01 -3.21056114682E+01 -2.65210987184E+01  9.94853684681E+01  6.00000000000E+01  0.0000E+00  9.0
</event>
<event>
10    1   3.4312288E-02   4.9840000E+02  -1.0000000E+00   9.3530000E-02
       11   -1    0    0    0    0  0.00000000000E+00  0.00000000000E+00  2.50000000000E+02  2.50000000000E+02  0.00000000000E+00  0.0000E+00  9.0
      -11   -1    0    0    0    0  0.00000000000E+00  0.00000000000E+00 -2.48437501760E+02  2.48437501760E+02  0.00000000000E+00  0.0000E+00  9.0
  3000025    2    1    2    0    0 -1.72502611634E+02 -7.97316904961E+01 -1.78307939163E+01  2.49264422565E+02  1.60313822408E+02  3.3590E-13  9.0
 -3000025    2    1    2    0    0  1.72502611634E+02  7.97316904961E+01  1.93932921613E+01  2.49173079187E+02  1.59990093820E+02  1.0980E-12  9.0
       14    1    3    3    0    0  1.40417267164E+00 -1.60911328972E+01  3.46144604980E+01  3.81976063959E+01  0.00000000000E+00  0.0000E+00  9.0
      -13    1    3    3    0    0 -3.91324318685E+01 -1.40897730206E+01 -3.52010957876E+01  5.44885056214E+01  1.05700000000E-01  0.0000E+00  9.0
  3000022    1    3    3    0    0 -1.34774352438E+02 -4.95507845784E+01 -1.72441586258E+01  1.56578310548E+02  6.00000000000E+01  0.0000E+00  9.0
       -2    1    4    4    0  500  5.91778226259E+01  1.67915911990E+01 -3.76995817546E+00  6.16294152120E+01  3.00000000000E-03  0.0000E+00  9.0
        1    1    4    4  500    0  9.57795292863E+01  6.17024569559E+01  4.32572375552E+01  1.21869192377E+02  5.00000000000E-03  0.0000E+00  9.0
  3000022    1    4    4    0    0  1.75452597220E+01  1.23764234162E+00 -2.00939872192E+01  6.56744715977E+01  6.00000000000E+01  0.0000E+00  9.0
</event>
<event>
10    1   3.4312288E-02   4.4220000E+02  -1.0000000E+00   9.4870000E-02
       11   -1    0    0    0    0  0.00000000000E+00  0.00000000000E+00  2.35173980940E+02  2.35173980940E+02  0.00000000000E+00  0.0000E+00  9.0
      -11   -1    0    0    0    0  0.00000000000E+00  0.00000000000E+00 -2.07908652370E+02  2.07908652370E+02  0.00000000000E+00  0.0000E+00  9.0
  3000025    2    1    2    0    0 -5.19276690695E+01 -2.65143294462E-01 -1.30182945722E+02  2.12619866828E+02  1.59884506120E+02  2.7240E-13  9.0
 -3000025    2    1    2    0    0  5.19276690695E+01  2.65143294462E-01  1.57448274282E+02  2.30462766481E+02  1.60083023909E+02  1.0579E-12  9.0
       14    1    3    3    0    0  2.57800767285E+01  3.95147243792E+00 -5.15096403766E+01  5.77362065110E+01  0.00000000000E+00  0.0000E+00  9.0
      -13    1    3    3    0    0 -5.37934699911E+01  2.62948749728E+01 -4.96306807579E+01  7.77712897444E+01  1.05700000000E-01  0.0000E+00  9.0
  3000022    1    3    3    0    0 -2.39142758070E+01 -3.05114907052E+01 -2.90426245873E+01  7.71123705727E+01  6.00000000000E+01  0.0000E+00  9.0
       -4    1    4    4    0  500  2.50575042788E+01 -2.80031246060E+01 -7.39105016638E-01  3.76132332113E+01  1.46817165330E+00  0.0000E+00  9.0
        3    1    4    4  500    0  1.56332901211E+01 -1.01326623933E+01  9.54845247594E+01  9.72851739769E+01  2.00000000000E-01  0.0000E+00  9.0
  3000022    1    4    4    0    0  1.12368746702E+01  3.84009302937E+01  6.27028545388E+01  9.55643592931E+01  6.00000000000E+01  0.0000E+00  9.0
</event>
<event>
10    1   3.4312288E-02   5.0000000E+02  -1.0000000E+00   9.3490000E-02
       11   -1    0    0    0    0  0.00000000000E+00  0.00000000000E+00  2.50000000000E+02  2.50000000000E+02  0.00000000000E+00  0.0000E+00  9.0
      -11   -1    0    0    0    0  0.00000000000E+00  0.00000000000E+00 -2.49999999990E+02  2.49999999990E+02  0.00000000000E+00  0.0000E+00  9.0
  3000025    2    1    2    0    0 -1.33935239421E+02 -4.96712768547E+01 -1.29276771322E+02  2.50271076735E+02  1.59741178609E+02  7.9912E-15  9.0
 -3000025    2    1    2    0    0  1.33935239421E+02  4.96712768547E+01  1.29276771332E+02  2.49728923250E+02  1.58890425760E+02  2.9841E-12  9.0
        2    1    3    3  500    0 -8.43952727342E+00 -3.13597864349E+01  4.18794932790E+00  3.27444767009E+01  3.00000000000E-03  0.0000E+00  9.0
       -1    1    3    3    0  500 -6.37229967963E+01  3.02159487211E+01 -3.80163869771E+01  8.01178480840E+01  5.00000000000E-03  0.0000E+00  9.0
  3000022    1    3    3    0    0 -6.17727153518E+01 -4.85274391410E+01 -9.54483336731E+01  1.37408751950E+02  6.00000000000E+01  0.0000E+00  9.0
       -2    1    4    4    0  504 -1.15491166120E+01  3.26399274942E-01  1.74599865100E+01  2.09365653567E+01  3.00000000000E-03  0.0000E+00  9.0
        1    1    4    4  504    0  1.07694806560E+02  6.26581141377E+01  5.17604545097E+01  1.34919810641E+02  5.00000000000E-03  0.0000E+00  9.0
  3000022    1    4    4    0    0  3.77895494731E+01 -1.33132365589E+01  6.00563303120E+01  9.38725472521E+01  6.00000000000E+01  0.0000E+00  9.0
</event>
<event>
10    1   3.4312288E-02   4.8950000E+02  -1.0000000E+00   9.3730000E-02
       11   -1    0    0    0    0  0.00000000000E+00  0.00000000000E+00  2.49545329070E+02  2.49545329070E+02  0.00000000000E+00  0.0000E+00  9.0
      -11   -1    0    0    0    0  0.00000000000E+00  0.00000000000E+00 -2.40071776420E+02  2.40071776420E+02  0.00000000000E+00  0.0000E+00  9.0
  3000025    2    1    2    0    0  1.34328902490E+02 -1.25322790714E+02 -1.90815734963E+01  2.44359676458E+02  1.59992153292E+02  9.5255E-13  9.0
 -3000025    2    1    2    0    0 -1.34328902490E+02  1.25322790714E+02  2.85551261443E+01  2.45257429027E+02  1.59955479266E+02  1.1318E-11  9.0
        4    1    3    3  500    0  3.55420488029E+01 -5.79514799469E+01  3.75742582265E+01  7.76890704696E+01  1.46817165330E+00  0.0000E+00  9.0
       -3    1    3    3    0  500  4.21908048297E+01  1.02375165991E+01 -1.33727467267E+01  4.54284174643E+01  2.00000000000E-01  0.0000E+00  9.0
  3000022    1    3    3    0    0  5.65960488575E+01 -7.76088273659E+01 -4.32830849958E+01  1.21242188524E+02  6.00000000000E+01  0.0000E+00  9.0
       -4    1    4    4    0  504 -3.71568287665E+01 -3.19867217603E+00  1.68971066558E+01  4.09698568342E+01  1.46817165330E+00  0.0000E+00  9.0
        3    1    4    4  504    0 -2.32171987220E+01  6.46046431085E+01 -3.89440981035E+01  7.89270612957E+01  2.00000000000E-01  0.0000E+00  9.0
  3000022    1    4    4    0    0 -7.39548750021E+01  6.39168197818E+01  5.06021175921E+01  1.25360510897E+02  6.00000000000E+01  0.0000E+00  9.0
</event>
<event>
10    1   3.4312288E-02   5.0000000E+02  -1.0000000E+00   9.3490000E-02
       11   -1    0    0    0    0  0.00000000000E+00  0.00000000000E+00  2.50000000000E+02  2.50000000000E+02  0.00000000000E+00  0.0000E+00  9.0
      -11   -1    0    0    0    0  0.00000000000E+00  0.00000000000E+00 -2.49999701600E+02  2.49999701600E+02  0.00000000000E+00  0.0000E+00  9.0
  3000025    2    1    2    0    0 -1.33560494735E+01  1.31642963645E+02  1.39346596289E+02  2.49973041659E+02  1.59877433443E+02  1.6232E-12  9.0
 -3000025    2    1    2    0    0  1.33560494735E+01 -1.31642963645E+02 -1.39346297889E+02  2.50026659942E+02  1.59961514158E+02  8.3573E-13  9.0
        2    1    3    3  500    0  4.13860141450E+01  3.22941803849E+01  6.81085851636E+00  5.29349039507E+01  3.00000000000E-03  0.0000E+00  9.0
       -1    1    3    3    0  500 -3.01536276250E+01  6.11870787171E+01  4.55310997374E+01  8.20132972705E+01  5.00000000000E-03  0.0000E+00  9.0
  3000022    1    3    3    0    0 -2.45884359935E+01  3.81617045436E+01  8.70046380350E+01  1.15024840438E+02  6.00000000000E+01  0.0000E+00  9.0
       -4    1    4    4    0  504  1.30093279600E+01  8.45136023983E-01  7.64067277920E+00  1.51819721180E+01  1.46817165330E+00  0.0000E+00  9.0
        3    1    4    4  504    0  1.70585553621E+01 -9.69666831302E+01 -1.26451245298E+02  1.60260691954E+02  2.00000000000E-01  0.0000E+00  9.0
  3000022    1    4    4    0    0 -1.67118338484E+01 -3.55214165388E+01 -2.05357253717E+01  7.45839958707E+01  6.00000000000E+01  0.0000E+00  9.0
</event>
<event>
10    1   3.4312288E-02   4.9090000E+02  -1.0000000E+00   9.3700000E-02
       11   -1    0    0    0    0  0.00000000000E+00  0.00000000000E+00  2.42053817800E+02  2.42053817800E+02  0.00000000000E+00  0.0000E+00  9.0
      -11   -1    0    0    0    0  0.00000000000E+00  0.00000000000E+00 -2.48851759420E+02  2.48851759420E+02  0.00000000000E+00  0.0000E+00  9.0
  3000025    2    1    2    0    0 -9.83745911750E+01  1.37745741125E+02 -8.05910200255E+01  2.46544718682E+02  1.60118507408E+02  1.4005E-13  9.0
 -3000025    2    1    2    0    0  9.83745911750E+01 -1.37745741125E+02  7.37930784015E+01  2.44360858535E+02  1.60047997105E+02  2.4509E-13  9.0
        4    1    3    3  500    0 -6.84524228614E+01  7.60745169411E+01 -2.74516365829E+01  1.05966099308E+02  1.46817165330E+00  0.0000E+00  9.0
       -3    1    3    3    0  500 -1.40991509913E+00  1.30350332099E+01 -5.66744205223E+01  5.81715557030E+01  2.00000000000E-01  0.0000E+00  9.0
  3000022    1    3    3    0    0 -2.85122532151E+01  4.86361909739E+01  3.53503707960E+00  8.24070636718E+01  6.00000000000E+01  0.0000E+00  9.0
       -4    1    4    4    0  504 -1.76683173735E+01 -1.32771092042E+01 -3.56551082320E+00  2.24347824385E+01  1.46817165330E+00  0.0000E+00  9.0
        3    1    4    4  504    0  8.93694225703E+01 -5.51731774281E+01  1.08690719906E+01  1.05589535106E+02  2.00000000000E-01  0.0000E+00  9.0
  3000022    1    4    4    0    0  2.66734859782E+01 -6.92954544930E+01  6.64895172341E+01  1.16336540991E+02  6.00000000000E+01  0.0000E+00  9.0
</event>
<event>
10    1   3.4312288E-02   4.9640000E+02  -1.0000000E+00   9.3570000E-02
       11   -1    0    0    0    0  0.00000000000E+00  0.00000000000E+00  2.50000000000E+02  2.50000000000E+02  0.00000000000E+00  0.0000E+00  9.0
      -11   -1    0    0    0    0  0.00000000000E+00  0.00000000000E+00 -2.46383076690E+02  2.46383076690E+02  0.00000000000E+00  0.0000E+00  9.0
  3000025    2    1    2    0    0  1.80188844813E+02 -3.78803559995E+01  4.75591825231E+01  2.48543928760E+02  1.60028958365E+02  1.5699E-13  9.0
 -3000025    2    1    2    0    0 -1.80188844813E+02  3.78803559995E+01 -4.39422592101E+01  2.47839147931E+02  1.59969934478E+02  2.8780E-13  9.0
        2    1    3    3  500    0  9.34613812766E+01 -1.69916186760E-01  3.87727473750E+01  1.01184903072E+02  3.00000000000E-03  0.0000E+00  9.0
       -1    1    3    3    0  500  4.35284702452E+01 -5.59905717662E+01  5.35140562271E+00  7.11217928327E+01  5.00000000000E-03  0.0000E+00  9.0
  3000022    1    3    3    0    0  4.31989932905E+01  1.82801319535E+01  3.43502952504E+00  7.62372328550E+01  6.00000000000E+01  0.0000E+00  9.0
      -14    1    4    4    0    0 -1.23097101860E+01  5.10401692268E+00 -4.20815395616E+01  4.41410911225E+01  0.00000000000E+00  0.0000E+00  9.0
       13    1    4    4    0    0 -3.34958896623E+01 -8.10819743704E+00  3.22424154721E+01  4.71943006931E+01  1.05700000000E-01  0.0000E+00  9.0
  3000022    1    4    4    0    0 -1.34383244964E+02  4.08845365136E+01 -3.41031351212E+01  1.56503756115E+02  6.00000000000E+01  0.0000E+00  9.0
</event>
<event>
10    1   3.4312288E-02   4.6940000E+02  -1.0000000E+00   9.4190000E-02
       11   -1    0    0    0    0  0.00000000000E+00  0.00000000000E+00  2.49999985070E+02  2.49999985070E+02  0.00000000000E+00  0.0000E+00  9.0
      -11   -1    0    0    0    0  0.00000000000E+00  0.00000000000E+00 -2.20357264060E+02  2.20357264060E+02  0.00000000000E+00  0.0000E+00  9.0
  3000025    2    1    2    0    0 -1.60204639114E+02 -3.89604310905E+01 -3.33934644152E+01  2.32279873056E+02  1.60172951452E+02  2.2349E-13  9.0
 -3000025    2    1    2    0    0  1.60204639114E+02  3.89604310905E+01  6.30361854262E+01  2.38077376073E+02  1.59761806263E+02  2.4893E-14  9.0
        4    1    3    3  500    0 -9.85491226811E+01 -3.78124349503E+01  1.27127906978E+01  1.06327232605E+02  1.46817165330E+00  0.0000E+00  9.0
       -3    1    3    3    0  500  4.07716934630E+00  1.93344755602E+01  6.19787554847E+00  2.07098748519E+01  2.00000000000E-01  0.0000E+00  9.0
  3000022    1    3    3    0    0 -6.57326857796E+01 -2.04824717006E+01 -5.23041306615E+01  1.05242765599E+02  6.00000000000E+01  0.0000E+00  9.0
       -4    1    4    4    0  504  2.70320817401E+01  3.33981816747E+01 -1.95578638939E+01  4.72317430388E+01  1.46817165330E+00  0.0000E+00  9.0
        3    1    4    4  504    0  4.79269288565E+01  2.05432369477E+01  6.61871876106E+01  8.42603044007E+01  2.00000000000E-01  0.0000E+00  9.0
  3000022    1    4    4    0    0  8.52456285170E+01 -1.49809875329E+01  1.64068617095E+01  1.06585328633E+02  6.00000000000E+01  0.0000E+00  9.0
</event>
<event>
10    1   3.4312288E-02   4.9940000E+02  -1.0000000E+00   9.3500000E-02
       11   -1    0    0    0    0  0.00000000000E+00  0.00000000000E+00  2.49999999920E+02  2.49999999920E+02  0.00000000000E+00  0.0000E+00  9.0
      -11   -1    0    0    0    0  0.00000000000E+00  0.00000000000E+00 -2.49425468100E+02  2.49425468100E+02  0.00000000000E+00  0.0000E+00  9.0
  3000025    2    1    2    0    0  6.00608670499E+01  3.19150896001E+01  1.79156215354E+02  2.49762422730E+02  1.60182513443E+02  2.9427E-12  9.0
 -3000025    2    1    2    0    0 -6.00608670499E+01 -3.19150896001E+01 -1.78581683524E+02  2.49663045291E+02  1.60668409460E+02  7.8354E-13  9.0
        2    1    3    3  500    0  6.68790249648E+01 -2.05656022436E+01  5.64761866118E+01  8.99183387251E+01  3.00000000000E-03  0.0000E+00  9.0
       -1    1    3    3    0  500 -1.30341177907E+01  1.96037110298E+01  5.76121358520E+00  2.42360334976E+01  5.00000000000E-03  0.0000E+00  9.0
  3000022    1    3    3    0    0  6.21595987591E+00  3.28769808139E+01  1.16918815158E+02  1.35608050508E+02  6.00000000000E+01  0.0000E+00  9.0
       -4    1    4    4    0  504 -7.28179513994E+00 -4.90346435518E+01 -9.98928547123E+01  1.11526493531E+02  1.46817165330E+00  0.0000E+00  9.0
        3    1    4    4  504    0 -5.12651948266E+01  1.34155408849E+00 -3.16230095685E+01  6.02492713828E+01  2.00000000000E-01  0.0000E+00  9.0
  3000022    1    4    4    0    0 -1.51387708333E+00  1.57779998631E+01 -4.70658192436E+01  7.78872803773E+01  6.00000000000E+01  0.0000E+00  9.0
</event>
<event>
10    1   3.4312288E-02   4.9940000E+02  -1.0000000E+00   9.3500000E-02
       11   -1    0    0    0    0  0.00000000000E+00  0.00000000000E+00  2.49387243800E+02  2.49387243800E+02  0.00000000000E+00  0.0000E+00  9.0
      -11   -1    0    0    0    0  0.00000000000E+00  0.00000000000E+00 -2.50000000000E+02  2.50000000000E+02  0.00000000000E+00  0.0000E+00  9.0
  3000025    2    1    2    0    0 -1.02746443611E+02  1.55976487407E+02 -4.31825916292E+01  2.49777125187E+02  1.60119891794E+02  7.0100E-13  9.0
 -3000025    2    1    2    0    0  1.02746443611E+02 -1.55976487407E+02  4.25698354292E+01  2.49610118611E+02  1.60023511167E+02  3.6958E-13  9.0
        2    1    3    3  500    0 -2.75749282156E+01  7.93782528754E+01 -4.20707893380E+01  9.39746509447E+01  3.00000000000E-03  0.0000E+00  9.0
       -1    1    3    3    0  500 -6.28680607837E+01  4.78587449396E+01  2.56129382000E+01  8.30594676249E+01  5.00000000000E-03  0.0000E+00  9.0
  3000022    1    3    3    0    0 -1.23034546125E+01  2.87394895909E+01 -2.67247404912E+01  7.27430066169E+01  6.00000000000E+01  0.0000E+00  9.0
      -14    1    4    4    0    0  2.45500403341E+01 -6.01862476728E+01 -2.03346534868E+01  6.81071730566E+01  0.00000000000E+00  0.0000E+00  9.0
       13    1    4    4    0    0 -1.49312206761E+00  1.62568375452E+01  1.92978782886E+01  2.52771331328E+01  1.05700000000E-01  0.0000E+00  9.0
  3000022    1    4    4    0    0  7.96895253438E+01 -1.12047077278E+02  4.36066106284E+01  1.56225812421E+02  6.00000000000E+01  0.0000E+00  9.0
</event>
<event>
10    1   3.4312288E-02   4.9760000E+02  -1.0000000E+00   9.3540000E-02
       11   -1    0    0    0    0  0.00000000000E+00  0.00000000000E+00  2.49999999990E+02  2.49999999990E+02  0.00000000000E+00  0.0000E+00  9.0
      -11   -1    0    0    0    0  0.00000000000E+00  0.00000000000E+00 -2.47623596810E+02  2.47623596810E+02  0.00000000000E+00  0.0000E+00  9.0
  3000025    2    1    2    0    0  1.27921982229E+02 -1.37165513628E+02  3.37353902697E+01  2.48847020027E+02  1.60026095227E+02  6.1089E-13  9.0
 -3000025    2    1    2    0    0 -1.27921982229E+02  1.37165513628E+02 -3.13589870877E+01  2.48776576769E+02  1.60399462005E+02  6.6388E-13  9.0
        4    1    3    3  500    0  3.74882394342E+01 -8.96900200258E+01 -1.47190433786E+01  9.83283964787E+01  1.46817165330E+00  0.0000E+00  9.0
       -3    1    3    3    0  500 -7.26688134267E+00  6.36123138502E+00  1.77154440773E+01  2.01779530190E+01  2.00000000000E-01  0.0000E+00  9.0
  3000022    1    3    3    0    0  9.77006241377E+01 -5.38367249871E+01  3.07389895721E+01  1.30340670530E+02  6.00000000000E+01  0.0000E+00  9.0
       -4    1    4    4    0  504 -6.28501812830E+01  9.67727522162E+00  1.25832215733E+01  6.48404806906E+01  1.46817165330E+00  0.0000E+00  9.0
        3    1    4    4  504    0 -5.38714753270E+01  7.50151361662E+01 -4.65069674936E+01  1.03403793612E+02  2.00000000000E-01  0.0000E+00  9.0
  3000022    1    4    4    0    0 -1.12003256193E+01  5.24731022406E+01  2.56475883249E+00  8.05323024668E+01  6.00000000000E+01  0.0000E+00  9.0
</event>
<event>
10    1   3.4312288E-02   5.0000000E+02  -1.0000000E+00   9.3490000E-02
       11   -1    0    0    0    0  0.00000000000E+00  0.00000000000E+00  2.50000000000E+02  2.50000000000E+02  0.00000000000E+00  0.0000E+00  9.0
      -11   -1    0    0    0    0  0.00000000000E+00  0.00000000000E+00 -2.49999999700E+02  2.49999999700E+02  0.00000000000E+00  0.0000E+00  9.0
  3000025    2    1    2    0    0  7.01498172358E+01 -1.49730982961E+02  9.76375092770E+01  2.49938975274E+02  1.59987637105E+02  8.8810E-13  9.0
 -3000025    2    1    2    0    0 -7.01498172358E+01  1.49730982961E+02 -9.76375089780E+01  2.50061024422E+02  1.60178240279E+02  1.0849E-12  9.0
        2    1    3    3  500    0 -3.43385164608E+01 -1.46087510442E+01  1.77527395510E+01  4.13244369637E+01  3.00000000000E-03  0.0000E+00  9.0
       -1    1    3    3    0  500  4.50477823631E+01 -6.19490055795E+01  5.45377684608E+01  9.40284542136E+01  5.00000000000E-03  0.0000E+00  9.0
  3000022    1    3    3    0    0  5.94405513335E+01 -7.31732263373E+01  2.53470012661E+01  1.14586084097E+02  6.00000000000E+01  0.0000E+00  9.0
       -2    1    4    4    0  504 -5.21434000118E+01  3.47538641845E+01  2.03918759398E+01  6.58983600243E+01  3.00000000000E-03  0.0000E+00  9.0
        1    1    4    4  504    0  1.32810981230E+01  2.52820955076E+01 -3.00758787996E+01  4.14744551643E+01  5.00000000000E-03  0.0000E+00  9.0
  3000022    1    4    4    0    0 -3.12875153474E+01  8.96950232694E+01 -8.79535061182E+01  1.42688209234E+02  6.00000000000E+01  0.0000E+00  9.0
</event>
<event>
10    1   3.4312288E-02   4.3090000E+02  -1.0000000E+00   9.5160000E-02
       11   -1    0    0    0    0  0.00000000000E+00  0.00000000000E+00  1.91015295940E+02  1.91015295940E+02  0.00000000000E+00  0.0000E+00  9.0
      -11   -1    0    0    0    0  0.00000000000E+00  0.00000000000E+00 -2.43053674380E+02  2.43053674380E+02  0.00000000000E+00  0.0000E+00  9.0
  3000025    2    1    2    0    0  2.27643959993E+01  1.31906906416E+02 -8.03346411821E+01  2.23535676010E+02  1.59990294049E+02  4.4906E-13  9.0
 -3000025    2    1    2    0    0 -2.27643959993E+01 -1.31906906416E+02  2.82962627401E+01  2.10533294313E+02  1.60018560935E+02  1.2806E-12  9.0
        2    1    3    3  500    0 -2.90538867144E+00 -1.71054607067E+01  4.04283058879E+00  1.78152338601E+01  3.00000000000E-03  0.0000E+00  9.0
       -1    1    3    3    0  500  4.34534593783E+01  6.78871021059E+01 -5.97789477892E+01  1.00351304865E+02  5.00000000000E-03  0.0000E+00  9.0
  3000022    1    3    3    0    0 -1.77836747077E+01  8.11252650166E+01 -2.45985239816E+01  1.05369137285E+02  6.00000000000E+01  0.0000E+00  9.0
       -4    1    4    4    0  504 -4.84197992480E+01 -8.55727966015E+01  7.06237533768E+00  9.85860697606E+01  1.46817165330E+00  0.0000E+00  9.0
        3    1    4    4  504    0  2.71508987730E+01 -2.30756033821E+01 -1.43322478754E+01  3.84071361180E+01  2.00000000000E-01  0.0000E+00  9.0
  3000022    1    4    4    0    0 -1.49549552451E+00 -2.32585064322E+01  3.55661352775E+01  7.35400884341E+01  6.00000000000E+01  0.0000E+00  9.0
</event>
<event>
10    1   3.4312288E-02   4.9470000E+02  -1.0000000E+00   9.3610000E-02
       11   -1    0    0    0    0  0.00000000000E+00  0.00000000000E+00  2.46810312480E+02  2.46810312480E+02  0.00000000000E+00  0.0000E+00  9.0
      -11   -1    0    0    0    0  0.00000000000E+00  0.00000000000E+00 -2.47917199410E+02  2.47917199410E+02  0.00000000000E+00  0.0000E+00  9.0
  3000025    2    1    2    0    0 -6.25670038128E+01 -7.95286163395E+01  1.58586597142E+02  2.46996215623E+02  1.60056211862E+02  1.2439E-14  9.0
 -3000025    2    1    2    0    0  6.25670038128E+01  7.95286163395E+01 -1.59693484062E+02  2.47731296263E+02  1.60091709696E+02  1.5604E-12  9.0
        4    1    3    3  500    0 -1.86318133193E+01  1.59512979578E+01  6.65413048446E+01  7.09329905794E+01  1.46817165330E+00  0.0000E+00  9.0
       -3    1    3    3    0  500  1.51960737429E+01 -2.59806979649E+01 -4.33134004434E+00  3.04091734601E+01  2.00000000000E-01  0.0000E+00  9.0
  3000022    1    3    3    0    0 -5.91312642361E+01 -6.94992163324E+01  9.63766323418E+01  1.45654051583E+02  6.00000000000E+01  0.0000E+00  9.0
       -4    1    4    4    0  504  4.41295501897E+01  5.72636059520E+01 -6.68733293598E+01  9.84923117520E+01  1.46817165330E+00  0.0000E+00  9.0
        3    1    4    4  504    0 -9.62346490793E+00  3.70436368677E+00  1.68645637234E+01  1.97683306513E+01  2.00000000000E-01  0.0000E+00  9.0
  3000022    1    4    4    0    0  2.80609185309E+01  1.85606467013E+01 -1.09684718426E+02  1.29470653860E+02  6.00000000000E+01  0.0000E+00  9.0
</event>
<event>
10    1   3.4312288E-02   4.4020000E+02  -1.0000000E+00   9.4920000E-02
       11   -1    0    0    0    0  0.00000000000E+00  0.00000000000E+00  2.49950539320E+02  2.49950539320E+02  0.00000000000E+00  0.0000E+00  9.0
      -11   -1    0    0    0    0  0.00000000000E+00  0.00000000000E+00 -1.93830545260E+02  1.93830545260E+02  0.00000000000E+00  0.0000E+00  9.0
  3000025    2    1    2    0    0 -5.74696046924E+01 -1.38567620817E+02  9.04928494609E+00  2.19537072982E+02  1.60034045919E+02  1.0313E-12  9.0
 -3000025    2    1    2    0    0  5.74696046924E+01  1.38567620817E+02  4.70707091114E+01  2.24244011609E+02  1.59893664927E+02  3.6579E-13  9.0
        4    1    3    3  500    0 -1.07280423026E+01 -8.85443989791E+01  5.38536345854E+01  1.04199668753E+02  1.46817165330E+00  0.0000E+00  9.0
       -3    1    3    3    0  500 -2.46844625341E+01  6.14359254962E-01 -1.16654115002E+01  2.73097409977E+01  2.00000000000E-01  0.0000E+00  9.0
  3000022    1    3    3    0    0 -2.20570998565E+01 -5.06375810938E+01 -3.31389381391E+01  8.80276632321E+01  6.00000000000E+01  0.0000E+00  9.0
       -2    1    4    4    0  504  4.46311996505E+01  1.52359199286E+01 -4.47109078584E+00  4.73715938103E+01  3.00000000000E-03  0.0000E+00  9.0
        1    1    4    4  504    0  6.43347702417E+00  4.91998734762E+01  6.34506252006E+01  8.05481163035E+01  5.00000000000E-03  0.0000E+00  9.0
  3000022    1    4    4    0    0  6.40492801677E+00  7.41318274127E+01 -1.19088253033E+01  9.63243014953E+01  6.00000000000E+01  0.0000E+00  9.0
</event>
<event>
10    1   3.4312288E-02   4.9540000E+02  -1.0000000E+00   9.3590000E-02
       11   -1    0    0    0    0  0.00000000000E+00  0.00000000000E+00  2.49999994380E+02  2.49999994380E+02  0.00000000000E+00  0.0000E+00  9.0
      -11   -1    0    0    0    0  0.00000000000E+00  0.00000000000E+00 -2.45386966050E+02  2.45386966050E+02  0.00000000000E+00  0.0000E+00  9.0
  3000025    2    1    2    0    0  1.14482034481E+02 -1.29566054372E+02 -7.41093932365E+01  2.46908108049E+02  1.59930963199E+02  4.4768E-13  9.0
 -3000025    2    1    2    0    0 -1.14482034481E+02  1.29566054372E+02  7.87224215725E+01  2.48478852380E+02  1.60159363627E+02  6.6467E-13  9.0
        4    1    3    3  500    0  8.77176044157E+01 -9.56532047981E+01 -4.65483653252E+01  1.37886981093E+02  1.46817165330E+00  0.0000E+00  9.0
       -3    1    3    3    0  500 -1.71898051048E+01 -1.98718091293E+01 -1.98650000599E+01  3.29398910895E+01  2.00000000000E-01  0.0000E+00  9.0
  3000022    1    3    3    0    0  4.39542351708E+01 -1.40410404444E+01 -7.69602785176E+00  7.60812358661E+01  6.00000000000E+01  0.0000E+00  9.0
       -2    1    4    4    0  504 -3.64161750191E+01  5.46207947284E+00  3.49361845438E+01  5.07593253961E+01  3.00000000000E-03  0.0000E+00  9.0
        1    1    4    4  504    0 -4.57657637839E+01  1.15308674393E+02  2.61455235971E+01  1.26784005119E+02  5.00000000000E-03  0.0000E+00  9.0
  3000022    1    4    4    0    0 -3.23000956781E+01  8.79530050633E+00  1.76407134320E+01  7.09355218646E+01  6.00000000000E+01  0.0000E+00  9.0
</event>
<event>
10    1   3.4312288E-02   3.8420000E+02  -1.0000000E+00   9.6500000E-02
       11   -1    0    0    0    0  0.00000000000E+00  0.00000000000E+00  2.49999945030E+02  2.49999945030E+02  0.00000000000E+00  0.0000E+00  9.0
      -11   -1    0    0    0    0  0.00000000000E+00  0.00000000000E+00 -1.47587563010E+02  1.47587563010E+02  0.00000000000E+00  0.0000E+00  9.0
  3000025    2    1    2    0    0 -3.17107203217E+01 -8.07079176676E+01 -1.22148126912E+01  1.82469483658E+02  1.60083019273E+02  1.0439E-12  9.0
 -3000025    2    1    2    0    0  3.17107203217E+01  8.07079176676E+01  1.14627194712E+02  2.15118024386E+02  1.60053218932E+02  2.7623E-12  9.0
        2    1    3    3  500    0  1.63808311203E+01 -5.10217451339E+01 -1.20860752128E+01  5.49328984102E+01  3.00000000000E-03  0.0000E+00  9.0
       -1    1    3    3    0  500  8.13824996622E+00  2.10126522455E+01  1.84984550616E+01  2.91539968369E+01  5.00000000000E-03  0.0000E+00  9.0
  3000022    1    3    3    0    0 -5.62298014082E+01 -5.06988247792E+01 -1.86271925400E+01  9.83825884104E+01  6.00000000000E+01  0.0000E+00  9.0
      -14    1    4    4    0    0  1.55878341881E+01  3.79936422999E+01 -4.97590499441E+00  4.13673429217E+01  0.00000000000E+00  0.0000E+00  9.0
       13    1    4    4    0    0 -3.32684589931E+01 -6.13681585583E+00  2.61668802871E+01  4.27687697868E+01  1.05700000000E-01  0.0000E+00  9.0
  3000022    1    4    4    0    0  4.93913451277E+01  4.88510912237E+01  9.34362194196E+01  1.30981911678E+02  6.00000000000E+01  0.0000E+00  9.0
</event>
<event>
10    1   3.4312288E-02   4.7380000E+02  -1.0000000E+00   9.4090000E-02
       11   -1    0    0    0    0  0.00000000000E+00  0.00000000000E+00  2.49999502140E+02  2.49999502140E+02  0.00000000000E+00  0.0000E+00  9.0
      -11   -1    0    0    0    0  0.00000000000E+00  0.00000000000E+00 -2.24445205310E+02  2.24445205310E+02  0.00000000000E+00  0.0000E+00  9.0
  3000025    2    1    2    0    0 -6.17573438922E+01  1.58178022938E+02  5.36742610406E+01  2.39444852326E+02  1.60058284827E+02  6.6579E-13  9.0
 -3000025    2    1    2    0    0  6.17573438922E+01 -1.58178022938E+02 -2.81199642086E+01  2.34999855131E+02  1.59999822060E+02  1.0781E-12  9.0
        4    1    3    3  500    0 -2.18507881651E+01  1.99873229739E+01 -3.51665609666E+01  4.59977451765E+01  1.46817165330E+00  0.0000E+00  9.0
       -3    1    3    3    0  500 -8.73173358457E+00  8.04933785295E+01  2.77429988948E+01  8.55870384239E+01  2.00000000000E-01  0.0000E+00  9.0
  3000022    1    3    3    0    0 -3.11748221422E+01  5.76973214344E+01  6.10978231124E+01  1.07860068725E+02  6.00000000000E+01  0.0000E+00  9.0
       -4    1    4    4    0  504 -8.59954771329E+00 -9.94377944981E+00 -4.11814843586E+01  4.32539148818E+01  1.46817165330E+00  0.0000E+00  9.0
        3    1    4    4  504    0  1.55136802719E+01 -8.97524823391E+01  3.49466032621E+00  9.11506171806E+01  2.00000000000E-01  0.0000E+00  9.0
  3000022    1    4    4    0    0  5.48432113333E+01 -5.84817611490E+01  9.56685982272E+00  1.00595323069E+02  6.00000000000E+01  0.0000E+00  9.0
</event>
<event>
10    1   3.4312288E-02   4.9970000E+02  -1.0000000E+00   9.3500000E-02
       11   -1    0    0    0    0  0.00000000000E+00  0.00000000000E+00  2.49995040520E+02  2.49995040520E+02  0.00000000000E+00  0.0000E+00  9.0
      -11   -1    0    0    0    0  0.00000000000E+00  0.00000000000E+00 -2.49723005550E+02  2.49723005550E+02  0.00000000000E+00  0.0000E+00  9.0
  3000025    2    1    2    0    0 -1.28876170181E+01  1.90852518641E+02  1.56103856796E+00  2.50389145034E+02  1.61559625418E+02  5.6940E-13  9.0
 -3000025    2    1    2    0    0  1.28876170181E+01 -1.90852518641E+02 -1.28900359796E+00  2.49328901021E+02  1.59913929381E+02  2.0915E-12  9.0
        2    1    3    3  500    0  2.11731465281E+01  1.13968544721E+02  1.95898043133E+01  1.17562288859E+02  3.00000000000E-03  0.0000E+00  9.0
       -1    1    3    3    0  500  4.22674160191E-01  2.11210912719E+01 -3.63885253035E+01  4.20761684178E+01  5.00000000000E-03  0.0000E+00  9.0
  3000022    1    3    3    0    0 -3.44834377061E+01  5.57628826464E+01  1.83597595592E+01  9.07506877557E+01  6.00000000000E+01  0.0000E+00  9.0
       -2    1    4    4    0  504 -8.91460870643E+00 -4.21188176518E+01 -3.13866628954E+01  5.32783977376E+01  3.00000000000E-03  0.0000E+00  9.0
        1    1    4    4  504    0  1.38569276383E+01 -6.11759301593E+00  3.80143476468E+01  4.09210219800E+01  5.00000000000E-03  0.0000E+00  9.0
  3000022    1    4    4    0    0  7.94529808588E+00 -1.42616107972E+02 -7.91668835001E+00  1.55129481302E+02  6.00000000000E+01  0.0000E+00  9.0
</event>
<event>
10    1   3.4312288E-02   4.8870000E+02  -1.0000000E+00   9.3740000E-02
       11   -1    0    0    0    0  0.00000000000E+00  0.00000000000E+00  2.41062636190E+02  2.41062636190E+02  0.00000000000E+00  0.0000E+00  9.0
      -11   -1    0    0    0    0  0.00000000000E+00  0.00000000000E+00 -2.47685272980E+02  2.47685272980E+02  0.00000000000E+00  0.0000E+00  9.0
  3000025    2    1    2    0    0  1.00429106320E+02 -1.45360667630E+02  5.06506461840E+01  2.43616382321E+02  1.59899107833E+02  1.3421E-12  9.0
 -3000025    2    1    2    0    0 -1.00429106320E+02  1.45360667630E+02 -5.72732829800E+01  2.45131526851E+02  1.59979709409E+02  1.3149E-12  9.0
        4    1    3    3  500    0  9.64625704489E+01 -7.14247175704E+01  1.98301177203E+01  1.21663087559E+02  1.46817165330E+00  0.0000E+00  9.0
       -3    1    3    3    0  500 -3.07064070391E+00 -3.30275202577E+01  3.58243780181E+01  4.88228633848E+01  2.00000000000E-01  0.0000E+00  9.0
  3000022    1    3    3    0    0  7.03717657639E+00 -4.09084298030E+01 -5.00384955399E+00  7.31304313776E+01  6.00000000000E+01  0.0000E+00  9.0
       -2    1    4    4    0  504 -6.77834127840E+01  5.80470595476E+01 -3.79431882429E+01  9.69728710197E+01  3.00000000000E-03  0.0000E+00  9.0
        1    1    4    4  504    0  2.00474514127E+01  1.14069651914E+01 -2.95784197236E+01  3.75086936772E+01  5.00000000000E-03  0.0000E+00  9.0
  3000022    1    4    4    0    0 -5.26931449487E+01  7.59066428916E+01  1.02483249866E+01  1.10649962154E+02  6.00000000000E+01  0.0000E+00  9.0
</event>
<event>
10    1   3.4312288E-02   5.0000000E+02  -1.0000000E+00   9.3490000E-02
       11   -1    0    0    0    0  0.00000000000E+00  0.00000000000E+00  2.50000000000E+02  2.50000000000E+02  0.00000000000E+00  0.0000E+00  9.0
      -11   -1    0    0    0    0  0.00000000000E+00  0.00000000000E+00 -2.49999962790E+02  2.49999962790E+02  0.00000000000E+00  0.0000E+00  9.0
  3000025    2    1    2    0    0  4.41348455170E+01 -1.85249503271E+02 -2.57795444899E+01  2.49961361097E+02  1.59846282648E+02  1.0866E-12  9.0
 -3000025    2    1    2    0    0 -4.41348455170E+01  1.85249503271E+02  2.57795816989E+01  2.50038601688E+02  1.59967035512E+02  2.1243E-12  9.0
        4    1    3    3  500    0  2.61931964308E+01 -6.41675009473E+01 -1.49643430855E+01  7.09199464824E+01  1.46817165330E+00  0.0000E+00  9.0
       -3    1    3    3    0  500 -1.64397785863E+01 -5.92770305764E+01  3.99123478966E+01  7.33284950653E+01  2.00000000000E-01  0.0000E+00  9.0
  3000022    1    3    3    0    0  3.43814276737E+01 -6.18049717484E+01 -5.07275493010E+01  1.05712919550E+02  6.00000000000E+01  0.0000E+00  9.0
       -4    1    4    4    0  504 -1.56163776303E+00  8.40534777817E+01  6.69553129585E+00  8.43469709417E+01  1.46817165330E+00  0.0000E+00  9.0
        3    1    4    4  504    0  1.51386872351E+01 -1.41138468401E+01 -5.36821972783E+00  2.13831313627E+01  2.00000000000E-01  0.0000E+00  9.0
  3000022    1    4    4    0    0 -5.77118949891E+01  1.15309872329E+02  2.44522701303E+01  1.44308499384E+02  6.00000000000E+01  0.0000E+00  9.0
</event>
<event>
10    1   3.4312288E-02   4.7390000E+02  -1.0000000E+00   9.4090000E-02
       11   -1    0    0    0    0  0.00000000000E+00  0.00000000000E+00  2.31335048010E+02  2.31335048010E+02  0.00000000000E+00  0.0000E+00  9.0
      -11   -1    0    0    0    0  0.00000000000E+00  0.00000000000E+00 -2.42732593600E+02  2.42732593600E+02  0.00000000000E+00  0.0000E+00  9.0
  3000025    2    1    2    0    0 -1.18585686972E+02  6.09546856149E+01  1.07438613240E+02  2.34259388442E+02  1.59863587490E+02  1.7284E-13  9.0
 -3000025    2    1    2    0    0  1.18585686972E+02 -6.09546856149E+01 -1.18836158830E+02  2.39808253167E+02  1.60024769298E+02  1.7050E-12  9.0
        2    1    3    3  500    0 -6.23490488007E+00 -2.33440282872E+01 -5.59004248005E+00  2.48005298223E+01  3.00000000000E-03  0.0000E+00  9.0
       -1    1    3    3    0  500 -5.04457742177E+01  6.09174025096E+01  2.23876812619E+01  8.22004523237E+01  5.00000000000E-03  0.0000E+00  9.0
  3000022    1    3    3    0    0 -6.19050078734E+01  2.33813113927E+01  9.06409744577E+01  1.27258406296E+02  6.00000000000E+01  0.0000E+00  9.0
       -4    1    4    4    0  504  4.69380787440E+01 -6.20128493560E+01 -6.39546826369E+01  1.00703195980E+02  1.46817165330E+00  0.0000E+00  9.0
        3    1    4    4  504    0 -1.64609434144E+01  1.06122657726E+01 -1.88395622360E+00  1.96766901173E+01  2.00000000000E-01  0.0000E+00  9.0
  3000022    1    4    4    0    0  8.81085516425E+01 -9.55410203163E+00 -5.29975199698E+01  1.19428367070E+02  6.00000000000E+01  0.0000E+00  9.0
</event>
<event>
10    1   3.4312288E-02   4.6420000E+02  -1.0000000E+00   9.4320000E-02
       11   -1    0    0    0    0  0.00000000000E+00  0.00000000000E+00  2.15579198810E+02  2.15579198810E+02  0.00000000000E+00  0.0000E+00  9.0
      -11   -1    0    0    0    0  0.00000000000E+00  0.00000000000E+00 -2.49852837680E+02  2.49852837680E+02  0.00000000000E+00  0.0000E+00  9.0
  3000025    2    1    2    0    0 -1.25828975716E+02  1.11571046678E+02 -2.22063395162E+01  2.32958299956E+02  1.59672848090E+02  1.5378E-12  9.0
 -3000025    2    1    2    0    0  1.25828975716E+02 -1.11571046678E+02 -1.20672993538E+01  2.32473736529E+02  1.60054331011E+02  3.0079E-12  9.0
        2    1    3    3  500    0 -6.90498776432E+01  8.71565197490E+01 -1.41219844723E+00  1.11203142270E+02  3.00000000000E-03  0.0000E+00  9.0
       -1    1    3    3    0  500 -4.84522516610E+01 -1.11079237894E+01 -7.17621363579E+00  5.02245430948E+01  5.00000000000E-03  0.0000E+00  9.0
  3000022    1    3    3    0    0 -8.32684641154E+00  3.55224507183E+01 -1.36179274332E+01  7.15306145910E+01  6.00000000000E+01  0.0000E+00  9.0
       -2    1    4    4    0  504  6.04892930260E+01 -9.20591430983E+00  1.14977277133E+01  6.22567360262E+01  3.00000000000E-03  0.0000E+00  9.0
        1    1    4    4  504    0  2.40343280254E+01 -5.07157914822E+01 -5.19930311786E+01  7.65050047085E+01  5.00000000000E-03  0.0000E+00  9.0
  3000022    1    4    4    0    0  4.13053546631E+01 -5.16493408855E+01  2.84280041126E+01  9.37119957933E+01  6.00000000000E+01  0.0000E+00  9.0
</event>
<event>
10    1   3.4312288E-02   5.0000000E+02  -1.0000000E+00   9.3490000E-02
       11   -1    0    0    0    0  0.00000000000E+00  0.00000000000E+00  2.49999986150E+02  2.49999986150E+02  0.00000000000E+00  0.0000E+00  9.0
      -11   -1    0    0    0    0  0.00000000000E+00  0.00000000000E+00 -2.49999989070E+02  2.49999989070E+02  0.00000000000E+00  0.0000E+00  9.0
  3000025    2    1    2    0    0  1.72698573385E+02 -7.70625193180E+01 -3.20597727311E+01  2.50227710112E+02  1.60694271047E+02  8.6169E-13  9.0
 -3000025    2    1    2    0    0 -1.72698573385E+02  7.70625193180E+01  3.20597698121E+01  2.49772265105E+02  1.59984144347E+02  1.2634E-12  9.0
        4    1    3    3  500    0  8.63432179751E+01 -4.82677594697E+00  2.53769431435E+01  9.01365288196E+01  1.46817165330E+00  0.0000E+00  9.0
       -3    1    3    3    0  500 -1.31812080828E+01 -1.08354686498E+01 -1.25941175450E+01  2.12085695916E+01  2.00000000000E-01  0.0000E+00  9.0
  3000022    1    3    3    0    0  9.95365634928E+01 -6.14002747215E+01 -4.48425983291E+01  1.38882611700E+02  6.00000000000E+01  0.0000E+00  9.0
      -14    1    4    4    0    0  6.25794572732E+00  9.32700994271E+00  2.34990592696E+01  2.60453601579E+01  0.00000000000E+00  0.0000E+00  9.0
       13    1    4    4    0    0 -1.24467916795E+02  6.30995778778E+01  2.25184889543E+01  1.41353855826E+02  1.05700000000E-01  0.0000E+00  9.0
  3000022    1    4    4    0    0 -5.44886023169E+01  4.63593149776E+00 -1.39577784118E+01  8.23730491210E+01  6.00000000000E+01  0.0000E+00  9.0
</event>
<event>
10    1   3.4312288E-02   3.8720000E+02  -1.0000000E+00   9.6410000E-02
       11   -1    0    0    0    0  0.00000000000E+00  0.00000000000E+00  2.45367810600E+02  2.45367810600E+02  0.00000000000E+00  0.0000E+00  9.0
      -11   -1    0    0    0    0  0.00000000000E+00  0.00000000000E+00 -1.52778538640E+02  1.52778538640E+02  0.00000000000E+00  0.0000E+00  9.0
  3000025    2    1    2    0    0 -2.26742625820E+01 -1.06024522769E+02  3.55699146726E+01  1.96526355278E+02  1.60006461985E+02  7.3548E-13  9.0
 -3000025    2    1    2    0    0  2.26742625820E+01  1.06024522769E+02  5.70193572904E+01  2.01619993956E+02  1.60137732108E+02  7.6066E-14  9.0
       14    1    3    3    0    0  1.86521633870E-01  3.07824906828E+01 -2.83054843628E+00  3.09129184551E+01  0.00000000000E+00  0.0000E+00  9.0
      -13    1    3    3    0    0 -6.04028351071E+00 -4.73577520508E+01  2.97595488516E+01  5.62572984113E+01  1.05700000000E-01  0.0000E+00  9.0
  3000022    1    3    3    0    0 -1.68205007052E+01 -8.94492614012E+01  8.64091425759E+00  1.09356138412E+02  6.00000000000E+01  0.0000E+00  9.0
       -2    1    4    4    0  500  2.96239111195E+00  8.54625706606E+00  4.71837571859E+01  4.80429102170E+01  3.00000000000E-03  0.0000E+00  9.0
        1    1    4    4  500    0 -9.81267900221E+00  8.13363784328E+01  1.92145817197E+01  8.41492442118E+01  5.00000000000E-03  0.0000E+00  9.0
  3000022    1    4    4    0    0  2.95245504720E+01  1.61418872704E+01 -9.37898161477E+00  6.94278395268E+01  6.00000000000E+01  0.0000E+00  9.0
</event>
<event>
10    1   3.4312288E-02   4.9990000E+02  -1.0000000E+00   9.3490000E-02
       11   -1    0    0    0    0  0.00000000000E+00  0.00000000000E+00  2.50000000000E+02  2.50000000000E+02  0.00000000000E+00  0.0000E+00  9.0
      -11   -1    0    0    0    0  0.00000000000E+00  0.00000000000E+00 -2.49930592060E+02  2.49930592060E+02  0.00000000000E+00  0.0000E+00  9.0
  3000025    2    1    2    0    0  5.58415696219E+01  9.01145237023E+01  1.60190625569E+02  2.50007213174E+02  1.60011442837E+02  8.5904E-13  9.0
 -3000025    2    1    2    0    0 -5.58415696219E+01 -9.01145237023E+01 -1.60121217629E+02  2.49923378892E+02  1.59949938112E+02  1.1079E-12  9.0
        4    1    3    3  500    0 -9.25008734178E-01  6.04392464948E+01  1.21316500755E+02  1.35549279015E+02  1.46817165330E+00  0.0000E+00  9.0
       -3    1    3    3    0  500  3.85306572458E+01  3.74903302817E+00  2.20225205408E+01  4.45387270520E+01  2.00000000000E-01  0.0000E+00  9.0
  3000022    1    3    3    0    0  1.82359211105E+01  2.59262441795E+01  1.68516042744E+01  6.99192071081E+01  6.00000000000E+01  0.0000E+00  9.0
       -2    1    4    4    0  504 -5.20145389470E+00 -5.39715353812E+01 -2.92457757376E+01  6.16059831633E+01  3.00000000000E-03  0.0000E+00  9.0
        1    1    4    4  504    0  1.12982973983E-01  2.81427062747E+01 -8.69163176374E+00  2.94545271450E+01  5.00000000000E-03  0.0000E+00  9.0
  3000022    1    4    4    0    0 -5.07530987003E+01 -6.42856945947E+01 -1.22183810128E+02  1.58862868584E+02  6.00000000000E+01  0.0000E+00  9.0
</event>
<event>
10    1   3.4312288E-02   4.6930000E+02  -1.0000000E+00   9.4200000E-02
       11   -1    0    0    0    0  0.00000000000E+00  0.00000000000E+00  2.20683839490E+02  2.20683839490E+02  0.00000000000E+00  0.0000E+00  9.0
      -11   -1    0    0    0    0  0.00000000000E+00  0.00000000000E+00 -2.49449467550E+02  2.49449467550E+02  0.00000000000E+00  0.0000E+00  9.0
  3000025    2    1    2    0    0 -5.89764217896E+00  8.49515956393E+01  1.35118377737E+02  2.26122710897E+02  1.60071698299E+02  3.0675E-12  9.0
 -3000025    2    1    2    0    0  5.89764217896E+00 -8.49515956393E+01 -1.63884005797E+02  2.44010596143E+02  1.59473031855E+02  1.0528E-12  9.0
        2    1    3    3  500    0 -6.53844196001E+00  3.27628803598E+01  9.75823382264E+01  1.03142960475E+02  3.00000000000E-03  0.0000E+00  9.0
       -1    1    3    3    0  500 -4.56230004048E+00 -1.94801394175E+01 -4.26604063521E+00  2.04570169156E+01  5.00000000000E-03  0.0000E+00  9.0
  3000022    1    3    3    0    0  5.20309982162E+00  7.16688546970E+01  4.18020801466E+01  1.02522733508E+02  6.00000000000E+01  0.0000E+00  9.0
       -4    1    4    4    0  504 -4.05201267323E+01 -3.50124752143E+01 -8.03371015948E+01  9.65606519846E+01  1.46817165330E+00  0.0000E+00  9.0
        3    1    4    4  504    0  1.00378561949E+01 -4.65720954041E+00  1.47679031924E+01  1.84547858940E+01  2.00000000000E-01  0.0000E+00  9.0
  3000022    1    4    4    0    0  3.63799127171E+01 -4.52819108845E+01 -9.83148073942E+01  1.28995158264E+02  6.00000000000E+01  0.0000E+00  9.0
</event>
<event>
10    1   3.4312288E-02   4.5070000E+02  -1.0000000E+00   9.4650000E-02
       11   -1    0    0    0    0  0.00000000000E+00  0.00000000000E+00  2.48888101580E+02  2.48888101580E+02  0.00000000000E+00  0.0000E+00  9.0
      -11   -1    0    0    0    0  0.00000000000E+00  0.00000000000E+00 -2.04010266230E+02  2.04010266230E+02  0.00000000000E+00  0.0000E+00  9.0
  3000025    2    1    2    0    0  5.36062527880E+01 -1.03944042912E+02  1.30134875996E+02  2.37120121457E+02  1.60040218866E+02  2.4802E-13  9.0
 -3000025    2    1    2    0    0 -5.36062527880E+01  1.03944042912E+02 -8.52570406477E+01  2.15778246352E+02  1.60042163894E+02  1.2888E-13  9.0
        2    1    3    3  500    0 -1.55834860624E+00 -6.42435204391E+01  1.49089815272E+01  6.59692057552E+01  3.00000000000E-03  0.0000E+00  9.0
       -1    1    3    3    0  500  8.78161209567E+00 -3.14178878945E+01  8.14109455236E+01  8.77037198002E+01  5.00000000000E-03  0.0000E+00  9.0
  3000022    1    3    3    0    0  4.63829892987E+01 -8.28263457883E+00  3.38149489462E+01  8.34471959031E+01  6.00000000000E+01  0.0000E+00  9.0
       -4    1    4    4    0  504 -2.37028127651E+01 -2.58244936106E+01 -1.28342881852E+01  3.73577606990E+01  1.46817165330E+00  0.0000E+00  9.0
        3    1    4    4  504    0 -3.78100489127E+01  5.66737641757E+01 -2.84390632984E+01  7.38263886826E+01  2.00000000000E-01  0.0000E+00  9.0
  3000022    1    4    4    0    0  7.90660888872E+00  7.30947723470E+01 -4.39836891641E+01  1.04594096970E+02  6.00000000000E+01  0.0000E+00  9.0
</event>
<event>
10    1   3.4312288E-02   5.0000000E+02  -1.0000000E+00   9.3490000E-02
       11   -1    0    0    0    0  0.00000000000E+00  0.00000000000E+00  2.50000000000E+02  2.50000000000E+02  0.00000000000E+00  0.0000E+00  9.0
      -11   -1    0    0    0    0  0.00000000000E+00  0.00000000000E+00 -2.49999999950E+02  2.49999999950E+02  0.00000000000E+00  0.0000E+00  9.0
  3000025    2    1    2    0    0  2.58664798638E+01 -1.84838159288E+02  4.40813995006E+01  2.49700406738E+02  1.59915300810E+02  9.2695E-13  9.0
 -3000025    2    1    2    0    0 -2.58664798638E+01  1.84838159288E+02 -4.40813994476E+01  2.50299593214E+02  1.60849298028E+02  7.0621E-13  9.0
        4    1    3    3  500    0  1.97537328534E+01  1.13131209557E+01  3.61542861890E+00  2.30959632729E+01  1.46817165330E+00  0.0000E+00  9.0
       -3    1    3    3    0  500 -3.21610092694E+01 -7.08466989225E+01  2.47434397452E+01  8.16447369759E+01  2.00000000000E-01  0.0000E+00  9.0
  3000022    1    3    3    0    0  3.82737562798E+01 -1.25304581322E+02  1.57225311363E+01  1.44959706489E+02  6.00000000000E+01  0.0000E+00  9.0
       -2    1    4    4    0  504 -3.22042010227E+00  3.70350541550E+01 -4.62067648135E+01  5.93045653000E+01  3.00000000000E-03  0.0000E+00  9.0
        1    1    4    4  504    0 -1.88345588970E+01  1.24325982430E+02  9.12013818050E+00  1.26074848648E+02  5.00000000000E-03  0.0000E+00  9.0
  3000022    1    4    4    0    0 -3.81150086453E+00  2.34771227035E+01 -6.99477281526E+00  6.49201792666E+01  6.00000000000E+01  0.0000E+00  9.0
</event>
<event>
10    1   3.4312288E-02   4.9570000E+02  -1.0000000E+00   9.3590000E-02
       11   -1    0    0    0    0  0.00000000000E+00  0.00000000000E+00  2.50000000000E+02  2.50000000000E+02  0.00000000000E+00  0.0000E+00  9.0
      -11   -1    0    0    0    0  0.00000000000E+00  0.00000000000E+00 -2.45754484300E+02  2.45754484300E+02  0.00000000000E+00  0.0000E+00  9.0
  3000025    2    1    2    0    0  5.31712843565E+01 -1.60331058440E+02  8.77896687959E+01  2.48656026477E+02  1.59967370971E+02  5.3631E-13  9.0
 -3000025    2    1    2    0    0 -5.31712843565E+01  1.60331058440E+02 -8.35441530949E+01  2.47098457826E+02  1.59827371132E+02  2.6966E-13  9.0
        2    1    3    3  500    0 -1.90796976909E+01 -1.69529373845E+01  2.70895503083E+01  3.72193591407E+01  3.00000000000E-03  0.0000E+00  9.0
       -1    1    3    3    0  500  4.42291313972E+01 -5.42822810240E+01 -2.15667609850E+01  7.32660037241E+01  5.00000000000E-03  0.0000E+00  9.0
  3000022    1    3    3    0    0  2.80218506499E+01 -8.90958400314E+01  8.22668794726E+01  1.38170663612E+02  6.00000000000E+01  0.0000E+00  9.0
      -14    1    4    4    0    0  9.17427326722E+00  8.40564846122E+01 -1.56720251510E+01  8.59957688941E+01  0.00000000000E+00  0.0000E+00  9.0
       13    1    4    4    0    0 -9.39589190268E+00 -1.69218822981E+01  2.52913273825E+00  1.95202605017E+01  1.05700000000E-01  0.0000E+00  9.0
  3000022    1    4    4    0    0 -5.29496657212E+01  9.31964561267E+01 -7.04012606833E+01  1.41582428431E+02  6.00000000000E+01  0.0000E+00  9.0
</event>
<event>
10    1   3.4312288E-02   4.9850000E+02  -1.0000000E+00   9.3520000E-02
       11   -1    0    0    0    0  0.00000000000E+00  0.00000000000E+00  2.49425980600E+02  2.49425980600E+02  0.00000000000E+00  0.0000E+00  9.0
      -11   -1    0    0    0    0  0.00000000000E+00  0.00000000000E+00 -2.49036094340E+02  2.49036094340E+02  0.00000000000E+00  0.0000E+00  9.0
  3000025    2    1    2    0    0 -1.18628973273E+02  1.42235570981E+02  4.70475034993E+01  2.49280154809E+02  1.60072911650E+02  4.7290E-13  9.0
 -3000025    2    1    2    0    0  1.18628973273E+02 -1.42235570981E+02 -4.66576172433E+01  2.49181920133E+02  1.60034074879E+02  5.5000E-13  9.0
        2    1    3    3  500    0 -5.23221104318E+01  9.55421439488E+01 -7.03247868090E+00  1.09157502151E+02  3.00000000000E-03  0.0000E+00  9.0
       -1    1    3    3    0  500 -5.53354180992E+01  2.06793672001E+01  4.25861189341E+01  7.28232262049E+01  5.00000000000E-03  0.0000E+00  9.0
  3000022    1    3    3    0    0 -1.09714447422E+01  2.60140598320E+01  1.14938632465E+01  6.72994264538E+01  6.00000000000E+01  0.0000E+00  9.0
       -2    1    4    4    0  504  5.92716660995E+01 -8.56614688109E+01  3.12449416500E+01  1.08753225372E+02  3.00000000000E-03  0.0000E+00  9.0
        1    1    4    4  504    0  3.41334733343E+01 -2.93645367403E+01 -4.06030911780E+01  6.06298693553E+01  5.00000000000E-03  0.0000E+00  9.0
  3000022    1    4    4    0    0  2.52238338405E+01 -2.72095654305E+01 -3.72994677154E+01  7.97988254073E+01  6.00000000000E+01  0.0000E+00  9.0
</event>
<event>
10    1   3.4312288E-02   4.9990000E+02  -1.0000000E+00   9.3490000E-02
       11   -1    0    0    0    0  0.00000000000E+00  0.00000000000E+00  2.49901242640E+02  2.49901242640E+02  0.00000000000E+00  0.0000E+00  9.0
      -11   -1    0    0    0    0  0.00000000000E+00  0.00000000000E+00 -2.49993639320E+02  2.49993639320E+02  0.00000000000E+00  0.0000E+00  9.0
  3000025    2    1    2    0    0 -1.12054931372E+02 -1.56323126503E+02 -1.32497085069E+01  2.50525868651E+02  1.59982588314E+02  4.6037E-12  9.0
 -3000025    2    1    2    0    0  1.12054931372E+02  1.56323126503E+02  1.31573118229E+01  2.49369013303E+02  1.58172571633E+02  4.1481E-12  9.0
        4    1    3    3  500    0 -1.56671465212E+01 -5.76711545732E+01  2.86400434962E+01  6.62859651011E+01  1.46817165330E+00  0.0000E+00  9.0
       -3    1    3    3    0  500 -2.32194602788E+00  2.17289904221E+00 -3.34736244367E+01  3.36249380153E+01  2.00000000000E-01  0.0000E+00  9.0
  3000022    1    3    3    0    0 -9.40658388227E+01 -1.00824870972E+02 -8.41612756639E+00  1.50614965535E+02  6.00000000000E+01  0.0000E+00  9.0
       -2    1    4    4    0  504  1.21379056486E+02  9.66226984265E+01  1.04420515356E+01  1.55492307379E+02  3.00000000000E-03  0.0000E+00  9.0
        1    1    4    4  504    0 -5.48518281520E+00 -3.53809849667E+00  9.92682022420E-01  6.60233398776E+00  5.00000000000E-03  0.0000E+00  9.0
  3000022    1    4    4    0    0 -3.83894229888E+00  6.32385265737E+01  1.72257826494E+00  8.72743719374E+01  6.00000000000E+01  0.0000E+00  9.0
</event>
<event>
10    1   3.4312288E-02   4.9810000E+02  -1.0000000E+00   9.3530000E-02
       11   -1    0    0    0    0  0.00000000000E+00  0.00000000000E+00  2.48101969770E+02  2.48101969770E+02  0.00000000000E+00  0.0000E+00  9.0
      -11   -1    0    0    0    0  0.00000000000E+00  0.00000000000E+00 -2.49999999890E+02  2.49999999890E+02  0.00000000000E+00  0.0000E+00  9.0
  3000025    2    1    2    0    0  9.08150782329E+01 -1.68068103181E+02 -4.43727707467E+00  2.49027926817E+02  1.59690178676E+02  2.5596E-12  9.0
 -3000025    2    1    2    0    0 -9.08150782329E+01  1.68068103181E+02  2.53924695167E+00  2.49074042841E+02  1.59803520928E+02  1.3444E-12  9.0
        2    1    3    3  500    0  7.82219149280E+01 -4.63802338059E+01  3.64226600089E+00  9.10113189307E+01  3.00000000000E-03  0.0000E+00  9.0
       -1    1    3    3    0  500  8.29129487075E+00 -8.56260079553E+01  6.88848724725E+00  8.63018545024E+01  5.00000000000E-03  0.0000E+00  9.0
  3000022    1    3    3    0    0  4.30186843398E+00 -3.60618614178E+01 -1.49680303231E+01  7.17147533824E+01  6.00000000000E+01  0.0000E+00  9.0
       -2    1    4    4    0  504 -5.62405972332E+01  1.21374545513E+02  2.45328278383E+01  1.36002370297E+02  3.00000000000E-03  0.0000E+00  9.0
        1    1    4    4  504    0  1.93451577214E+01  5.71873530818E+00 -7.04261663122E+00  2.13667389839E+01  5.00000000000E-03  0.0000E+00  9.0
  3000022    1    4    4    0    0 -5.39196387212E+01  4.09748223596E+01 -1.49509642559E+01  9.17049335609E+01  6.00000000000E+01  0.0000E+00  9.0
</event>
<event>
10    1   3.4312288E-02   4.9910000E+02  -1.0000000E+00   9.3510000E-02
       11   -1    0    0    0    0  0.00000000000E+00  0.00000000000E+00  2.49829963700E+02  2.49829963700E+02  0.00000000000E+00  0.0000E+00  9.0
      -11   -1    0    0    0    0  0.00000000000E+00  0.00000000000E+00 -2.49221567460E+02  2.49221567460E+02  0.00000000000E+00  0.0000E+00  9.0
  3000025    2    1    2    0    0  4.86806111034E+01 -1.71771171425E+02  6.87195769426E+01  2.49750276868E+02  1.60554300192E+02  9.7615E-13  9.0
 -3000025    2    1    2    0    0 -4.86806111034E+01  1.71771171425E+02 -6.81111807016E+01  2.49301254299E+02  1.60115099939E+02  3.4256E-12  9.0
        4    1    3    3  500    0  4.57943928382E+01 -7.26628539323E+01 -1.37540157735E+01  8.69962369009E+01  1.46817165330E+00  0.0000E+00  9.0
       -3    1    3    3    0  500  2.22465917132E+01 -3.44628726271E+01  5.45189097784E+01  6.82272083263E+01  2.00000000000E-01  0.0000E+00  9.0
  3000022    1    3    3    0    0 -1.93603734477E+01 -6.46454448652E+01  2.79546829372E+01  9.45268316404E+01  6.00000000000E+01  0.0000E+00  9.0
       -2    1    4    4    0  504 -1.48323359851E+01  1.24901690075E+02 -4.31926346434E+01  1.32988849422E+02  3.00000000000E-03  0.0000E+00  9.0
        1    1    4    4  504    0 -3.95924247379E+01  1.46497168922E+01 -2.26977935608E+01  4.79308268150E+01  5.00000000000E-03  0.0000E+00  9.0
  3000022    1    4    4    0    0  5.74414961946E+00  3.22197644579E+01 -2.22075249760E+00  6.83815780618E+01  6.00000000000E+01  0.0000E+00  9.0
</event>
<event>
10    1   3.4312288E-02   4.9960000E+02  -1.0000000E+00   9.3500000E-02
       11   -1    0    0    0    0  0.00000000000E+00  0.00000000000E+00  2.49560656840E+02  2.49560656840E+02  0.00000000000E+00  0.0000E+00  9.0
      -11   -1    0    0    0    0  0.00000000000E+00  0.00000000000E+00 -2.49999985710E+02  2.49999985710E+02  0.00000000000E+00  0.0000E+00  9.0
  3000025    2    1    2    0    0 -1.42803723572E+02  8.48498058690E+01 -9.60425747113E+01  2.49864530355E+02  1.60049099810E+02  1.5035E-13  9.0
 -3000025    2    1    2    0    0  1.42803723572E+02 -8.48498058690E+01  9.56032458393E+01  2.49696112203E+02  1.60049288695E+02  1.5793E-12  9.0
        2    1    3    3  500    0 -7.22004948025E+01  5.26640274351E+01  2.24188603066E+00  8.93948393218E+01  3.00000000000E-03  0.0000E+00  9.0
       -1    1    3    3    0  500 -2.30953071270E+01 -2.29125785992E+01 -2.41551073897E+01  4.05197323210E+01  5.00000000000E-03  0.0000E+00  9.0
  3000022    1    3    3    0    0 -4.75079216440E+01  5.50983570333E+01 -7.41293533521E+01  1.19949958712E+02  6.00000000000E+01  0.0000E+00  9.0
       -2    1    4    4    0  504  5.44546563725E+01 -6.74068917365E+01  3.96087234916E+00  8.67449547408E+01  3.00000000000E-03  0.0000E+00  9.0
        1    1    4    4  504    0  5.84521220061E+01 -1.93611022741E+01  6.82585154442E+01  9.19278402006E+01  5.00000000000E-03  0.0000E+00  9.0
  3000022    1    4    4    0    0  2.98969451938E+01  1.91818814163E+00  2.33838580457E+01  7.10233172611E+01  6.00000000000E+01  0.0000E+00  9.0
</event>
<event>
10    1   3.4312288E-02   4.9990000E+02  -1.0000000E+00   9.3490000E-02
       11   -1    0    0    0    0  0.00000000000E+00  0.00000000000E+00  2.50000000000E+02  2.50000000000E+02  0.00000000000E+00  0.0000E+00  9.0
      -11   -1    0    0    0    0  0.00000000000E+00  0.00000000000E+00 -2.49909093610E+02  2.49909093610E+02  0.00000000000E+00  0.0000E+00  9.0
  3000025    2    1    2    0    0 -1.79553773523E+02  2.94066198772E+01 -6.08555574241E+01  2.49876450543E+02  1.60095392774E+02  6.6283E-13  9.0
 -3000025    2    1    2    0    0  1.79553773523E+02 -2.94066198772E+01  6.09464638181E+01  2.50032643061E+02  1.60304536009E+02  5.8372E-12  9.0
        2    1    3    3  500    0 -7.60604704442E+01 -2.10941501316E+01 -2.00618647120E+01  8.14410017048E+01  3.00000000000E-03  0.0000E+00  9.0
       -1    1    3    3    0  500 -5.49088578392E+00  2.35240899327E+01 -4.41791982169E+01  5.03521023785E+01  5.00000000000E-03  0.0000E+00  9.0
  3000022    1    3    3    0    0 -9.80024172948E+01  2.69766800761E+01  3.38550550454E+00  1.18083346459E+02  6.00000000000E+01  0.0000E+00  9.0
       -4    1    4    4    0  504  5.48231151523E+01 -2.88258977633E+01 -2.42959292468E+01  6.65503872478E+01  1.46817165330E+00  0.0000E+00  9.0
        3    1    4    4  504    0  7.67834546461E+01 -2.16918808395E+01  6.03112886937E+01  1.00018638991E+02  2.00000000000E-01  0.0000E+00  9.0
  3000022    1    4    4    0    0  4.79472037242E+01  2.11111587266E+01  2.49311043714E+01  8.34636168215E+01  6.00000000000E+01  0.0000E+00  9.0
</event>
<event>
10    1   3.4312288E-02   4.6350000E+02  -1.0000000E+00   9.4340000E-02
       11   -1    0    0    0    0  0.00000000000E+00  0.00000000000E+00  2.23100176120E+02  2.23100176120E+02  0.00000000000E+00  0.0000E+00  9.0
      -11   -1    0    0    0    0  0.00000000000E+00  0.00000000000E+00 -2.40700901390E+02  2.40700901390E+02  0.00000000000E+00  0.0000E+00  9.0
  3000025    2    1    2    0    0 -2.18885577700E+01 -1.65524747155E+02 -2.33226031079E+01  2.32483294731E+02  1.60084314132E+02  1.5696E-14  9.0
 -3000025    2    1    2    0    0  2.18885577700E+01  1.65524747155E+02  5.72187783928E+00  2.31317782777E+02  1.59992580643E+02  1.0488E-12  9.0
        2    1    3    3  500    0 -1.47370651896E+01 -8.60722291928E+01 -5.04008977611E+01  1.00825890687E+02  3.00000000000E-03  0.0000E+00  9.0
       -1    1    3    3    0  500 -1.94832248499E+01 -5.62340887475E+01  2.88257622779E+01  6.61271002216E+01  5.00000000000E-03  0.0000E+00  9.0
  3000022    1    3    3    0    0  1.23317322691E+01 -2.32184292152E+01 -1.74746762419E+00  6.55303038225E+01  6.00000000000E+01  0.0000E+00  9.0
       -4    1    4    4    0  504 -1.92079373415E+01  4.20897271163E+01 -3.18204771140E+01  5.61710626338E+01  1.46817165330E+00  0.0000E+00  9.0
        3    1    4    4  504    0  6.95532300897E+00  4.05282870890E+00  3.63557457604E+01  3.72368391314E+01  2.00000000000E-01  0.0000E+00  9.0
  3000022    1    4    4    0    0  3.41411721029E+01  1.19382191331E+02  1.18660919374E+00  1.37909881012E+02  6.00000000000E+01  0.0000E+00  9.0
</event>
<event>
10    1   3.4312288E-02   5.0000000E+02  -1.0000000E+00   9.3490000E-02
       11   -1    0    0    0    0  0.00000000000E+00  0.00000000000E+00  2.49994947380E+02  2.49994947380E+02  0.00000000000E+00  0.0000E+00  9.0
      -11   -1    0    0    0    0  0.00000000000E+00  0.00000000000E+00 -2.49999712580E+02  2.49999712580E+02  0.00000000000E+00  0.0000E+00  9.0
  3000025    2    1    2    0    0  7.63585548181E+01  1.75828884786E+02  1.01495619090E+01  2.49844643290E+02  1.59915310571E+02  1.7552E-13  9.0
 -3000025    2    1    2    0    0 -7.63585548181E+01 -1.75828884786E+02 -1.01543271090E+01  2.50150016676E+02  1.60391692007E+02  4.8666E-13  9.0
        2    1    3    3  500    0  6.37915450865E+00  6.88734285989E+01  3.51634393329E+01  7.75932358775E+01  3.00000000000E-03  0.0000E+00  9.0
       -1    1    3    3    0  500  5.65356474525E+00  4.58147612931E+01 -4.36321619979E+01  6.35194516057E+01  5.00000000000E-03  0.0000E+00  9.0
  3000022    1    3    3    0    0  6.43258355641E+01  6.11406948934E+01  1.86182845740E+01  1.08731955807E+02  6.00000000000E+01  0.0000E+00  9.0
       -4    1    4    4    0  504 -3.55831250681E+00  1.54464420178E+01 -8.07088591073E+00  1.78479378723E+01  1.46817165330E+00  0.0000E+00  9.0
        3    1    4    4  504    0  5.17439800095E+00 -9.07086209183E+01  8.26767104648E+00  9.12316978254E+01  2.00000000000E-01  0.0000E+00  9.0
  3000022    1    4    4    0    0 -7.79746403128E+01 -1.00566705886E+02 -1.03511122445E+01  1.41070380978E+02  6.00000000000E+01  0.0000E+00  9.0
</event>
<event>
10    1   3.4312288E-02   4.9780000E+02  -1.0000000E+00   9.3540000E-02
       11   -1    0    0    0    0  0.00000000000E+00  0.00000000000E+00  2.49619519160E+02  2.49619519160E+02  0.00000000000E+00  0.0000E+00  9.0
      -11   -1    0    0    0    0  0.00000000000E+00  0.00000000000E+00 -2.48194217720E+02  2.48194217720E+02  0.00000000000E+00  0.0000E+00  9.0
  3000025    2    1    2    0    0 -1.24854802271E+02  1.32110481928E+02 -5.70496904056E+01  2.48714662277E+02  1.59882503643E+02  3.9545E-12  9.0
 -3000025    2    1    2    0    0  1.24854802271E+02 -1.32110481928E+02  5.84749918506E+01  2.49099074606E+02  1.59966006428E+02  3.4896E-14  9.0
        4    1    3    3  500    0  2.04273811311E+01  3.05881976225E+00 -2.15980269582E+01  2.99209721550E+01  1.46817165330E+00  0.0000E+00  9.0
       -3    1    3    3    0  500 -6.92530722372E+01  2.65888174796E+01 -2.07896070800E+01  7.70402556576E+01  2.00000000000E-01  0.0000E+00  9.0
  3000022    1    3    3    0    0 -7.60291111644E+01  1.02462844686E+02 -1.46620563667E+01  1.41753434465E+02  6.00000000000E+01  0.0000E+00  9.0
       -4    1    4    4    0  504  7.39493144273E+00 -5.86962950019E+01 -9.22387970627E+00  5.98930341762E+01  1.46817165330E+00  0.0000E+00  9.0
        3    1    4    4  504    0  8.33006399357E+01 -6.35337891787E+01  5.49634382658E+01  1.18307051891E+02  2.00000000000E-01  0.0000E+00  9.0
  3000022    1    4    4    0    0  3.41592308915E+01 -9.88039774709E+00  1.27354332906E+01  7.08989885389E+01  6.00000000000E+01  0.0000E+00  9.0
</event>
<event>
10    1   3.4312288E-02   5.0000000E+02  -1.0000000E+00   9.3490000E-02
       11   -1    0    0    0    0  0.00000000000E+00  0.00000000000E+00  2.49999999170E+02  2.49999999170E+02  0.00000000000E+00  0.0000E+00  9.0
      -11   -1    0    0    0    0  0.00000000000E+00  0.00000000000E+00 -2.49999657370E+02  2.49999657370E+02  0.00000000000E+00  0.0000E+00  9.0
  3000025    2    1    2    0    0 -1.02512062241E+02 -1.56767508990E+02 -4.11151095676E+01  2.50210936742E+02  1.60718032126E+02  3.0126E-12  9.0
 -3000025    2    1    2    0    0  1.02512062241E+02  1.56767508990E+02  4.11154513646E+01  2.49788719809E+02  1.60059830760E+02  3.4711E-12  9.0
        2    1    3    3  500    0 -1.77563333074E+01 -1.12424272558E+02  9.59921819422E+00  1.14221930607E+02  3.00000000000E-03  0.0000E+00  9.0
       -1    1    3    3    0  500 -4.70762341374E+01 -1.85887091126E+01 -1.68317744643E+01  5.33387343649E+01  5.00000000000E-03  0.0000E+00  9.0
  3000022    1    3    3    0    0 -3.76794947962E+01 -2.57545273197E+01 -3.38825532977E+01  8.26502717692E+01  6.00000000000E+01  0.0000E+00  9.0
       -2    1    4    4    0  504 -1.18102957337E+01 -6.81604022795E+00  1.30340156782E+01  1.88633788968E+01  3.00000000000E-03  0.0000E+00  9.0
        1    1    4    4  504    0  8.25977236771E+01  6.13808102072E+01 -7.50920253793E+00  1.03181277207E+02  5.00000000000E-03  0.0000E+00  9.0
  3000022    1    4    4    0    0  3.17246342990E+01  1.02202739012E+02  3.55906382242E+01  1.27744063706E+02  6.00000000000E+01  0.0000E+00  9.0
</event>
<event>
10    1   3.4312288E-02   4.9750000E+02  -1.0000000E+00   9.3550000E-02
       11   -1    0    0    0    0  0.00000000000E+00  0.00000000000E+00  2.47515426110E+02  2.47515426110E+02  0.00000000000E+00  0.0000E+00  9.0
      -11   -1    0    0    0    0  0.00000000000E+00  0.00000000000E+00 -2.50000000000E+02  2.50000000000E+02  0.00000000000E+00  0.0000E+00  9.0
  3000025    2    1    2    0    0 -8.58900536834E+01 -6.24077984806E+00  1.68519098962E+02  2.48017960512E+02  1.60306498206E+02  3.7663E-12  9.0
 -3000025    2    1    2    0    0  8.58900536834E+01  6.24077984806E+00 -1.71003672842E+02  2.49497465604E+02  1.59970874107E+02  4.5380E-12  9.0
        4    1    3    3  500    0  1.52285781483E+01  1.56463385510E+01  9.01518824340E+01  9.27697953909E+01  1.46817165330E+00  0.0000E+00  9.0
       -3    1    3    3    0  500 -3.62266362603E+01  1.36754467783E+01  2.12080084974E+01  4.41498204271E+01  2.00000000000E-01  0.0000E+00  9.0
  3000022    1    3    3    0    0 -6.48919955716E+01 -3.55625651774E+01  5.71592080315E+01  1.11098344695E+02  6.00000000000E+01  0.0000E+00  9.0
       -2    1    4    4    0  504  2.58498465228E+00 -2.21029407211E+01 -2.32518738009E+00  2.23747321666E+01  3.00000000000E-03  0.0000E+00  9.0
        1    1    4    4  504    0  2.45352359977E+01  5.77485235042E+01 -6.21045483896E+01  8.82827544204E+01  5.00000000000E-03  0.0000E+00  9.0
  3000022    1    4    4    0    0  5.87698330329E+01 -2.94048029340E+01 -1.06573937072E+02  1.38839979016E+02  6.00000000000E+01  0.0000E+00  9.0
</event>
<event>
10    1   3.4312288E-02   5.0000000E+02  -1.0000000E+00   9.3490000E-02
       11   -1    0    0    0    0  0.00000000000E+00  0.00000000000E+00  2.49999997120E+02  2.49999997120E+02  0.00000000000E+00  0.0000E+00  9.0
      -11   -1    0    0    0    0  0.00000000000E+00  0.00000000000E+00 -2.49999995630E+02  2.49999995630E+02  0.00000000000E+00  0.0000E+00  9.0
  3000025    2    1    2    0    0 -1.21365441642E+02 -1.38226073481E+02 -5.58085896488E+01  2.49909889113E+02  1.59700770765E+02  1.1137E-12  9.0
 -3000025    2    1    2    0    0  1.21365441642E+02  1.38226073481E+02  5.58085911378E+01  2.50090103632E+02  1.59982634292E+02  2.1456E-12  9.0
        4    1    3    3  500    0 -3.05189113847E+01 -5.97146101031E+01  1.02907049636E+01  6.78623072738E+01  1.46817165330E+00  0.0000E+00  9.0
       -3    1    3    3    0  500 -5.24661435646E+01  1.16579081950E+01 -1.21306884581E+01  5.50980639087E+01  2.00000000000E-01  0.0000E+00  9.0
  3000022    1    3    3    0    0 -3.83803866924E+01 -9.01693715725E+01 -5.39686061544E+01  1.26949517930E+02  6.00000000000E+01  0.0000E+00  9.0
       -2    1    4    4    0  504  8.29923191625E+01  5.89139628109E+01  1.81908363562E+01  1.03389973355E+02  3.00000000000E-03  0.0000E+00  9.0
        1    1    4    4  504    0 -2.48687534371E+00 -1.24598601752E+01 -1.39156108329E+01  1.88434846674E+01  5.00000000000E-03  0.0000E+00  9.0
  3000022    1    4    4    0    0  4.08599978235E+01  9.17719708450E+01  5.15333656147E+01  1.27856645609E+02  6.00000000000E+01  0.0000E+00  9.0
</event>
<event>
10    1   3.4312288E-02   4.8730000E+02  -1.0000000E+00   9.3780000E-02
       11   -1    0    0    0    0  0.00000000000E+00  0.00000000000E+00  2.37478141210E+02  2.37478141210E+02  0.00000000000E+00  0.0000E+00  9.0
      -11   -1    0    0    0    0  0.00000000000E+00  0.00000000000E+00 -2.49994247500E+02  2.49994247500E+02  0.00000000000E+00  0.0000E+00  9.0
  3000025    2    1    2    0    0 -1.79050290161E+02 -1.99262894651E+01 -4.15006293467E+01  2.44347337919E+02  1.59772512948E+02  2.2902E-12  9.0
 -3000025    2    1    2    0    0  1.79050290161E+02  1.99262894651E+01  2.89845230567E+01  2.43125050795E+02  1.60666189127E+02  4.8788E-14  9.0
        4    1    3    3  500    0 -7.98025809817E+01 -1.19983591857E+01  7.61093878210E+00  8.10709224793E+01  1.46817165330E+00  0.0000E+00  9.0
       -3    1    3    3    0  500 -6.00724668001E+00  3.59398371991E+01 -1.00078248907E+01  3.77882980514E+01  2.00000000000E-01  0.0000E+00  9.0
  3000022    1    3    3    0    0 -9.32404624997E+01 -4.38677674781E+01 -3.91037432374E+01  1.25488117389E+02  6.00000000000E+01  0.0000E+00  9.0
       -4    1    4    4    0  504  7.76149352043E+01 -1.25377387581E+01 -8.91768504763E+00  7.91388254559E+01  1.46817165330E+00  0.0000E+00  9.0
        3    1    4    4  504    0  4.10556070132E+00 -9.01995834451E+00  4.11351911132E+01  4.23126367074E+01  2.00000000000E-01  0.0000E+00  9.0
  3000022    1    4    4    0    0  9.73297942553E+01  4.14839865677E+01 -3.23298300890E+00  1.21673588631E+02  6.00000000000E+01  0.0000E+00  9.0
</event>
<event>
10    1   3.4312288E-02   4.5400000E+02  -1.0000000E+00   9.4570000E-02
       11   -1    0    0    0    0  0.00000000000E+00  0.00000000000E+00  2.06085374000E+02  2.06085374000E+02  0.00000000000E+00  0.0000E+00  9.0
      -11   -1    0    0    0    0  0.00000000000E+00  0.00000000000E+00 -2.49999999040E+02  2.49999999040E+02  0.00000000000E+00  0.0000E+00  9.0
  3000025    2    1    2    0    0 -9.17128849008E+01 -5.47702520513E+01 -1.43022057186E+02  2.39706871479E+02  1.59978253604E+02  2.5674E-12  9.0
 -3000025    2    1    2    0    0  9.17128849008E+01  5.47702520513E+01  9.91074321398E+01  2.16378501571E+02  1.59957303897E+02  6.6616E-13  9.0
        2    1    3    3  500    0 -7.39703561400E+01 -1.19587901733E+01 -2.94674128260E+01  8.05167974869E+01  3.00000000000E-03  0.0000E+00  9.0
       -1    1    3    3    0  500  1.28545614682E+01  1.69385554919E+01 -2.61936107424E+01  3.37381042949E+01  5.00000000000E-03  0.0000E+00  9.0
  3000022    1    3    3    0    0 -3.05970902292E+01 -5.97500173710E+01 -8.73610336187E+01  1.25451969699E+02  6.00000000000E+01  0.0000E+00  9.0
      -14    1    4    4    0    0 -8.89087662691E+00  2.73744972186E+01 -4.17707204388E+00  2.90836503215E+01  0.00000000000E+00  0.0000E+00  9.0
       13    1    4    4    0    0  7.59527881761E+01 -6.18451158345E+00  2.49390842984E+01  8.01813152386E+01  1.05700000000E-01  0.0000E+00  9.0
  3000022    1    4    4    0    0  2.46509733527E+01  3.35802664164E+01  7.83454198852E+01  1.07113536011E+02  6.00000000000E+01  0.0000E+00  9.0
</event>
<event>
10    1   3.4312288E-02   5.0000000E+02  -1.0000000E+00   9.3490000E-02
       11   -1    0    0    0    0  0.00000000000E+00  0.00000000000E+00  2.50000000000E+02  2.50000000000E+02  0.00000000000E+00  0.0000E+00  9.0
      -11   -1    0    0    0    0  0.00000000000E+00  0.00000000000E+00 -2.49996722090E+02  2.49996722090E+02  0.00000000000E+00  0.0000E+00  9.0
  3000025    2    1    2    0    0  8.25219762768E+00 -1.82401585773E+02  5.95928164486E+01  2.50005590254E+02  1.60040788950E+02  2.8042E-12  9.0
 -3000025    2    1    2    0    0 -8.25219762768E+00  1.82401585773E+02 -5.95895385346E+01  2.49991131838E+02  1.60019422687E+02  1.1523E-13  9.0
        2    1    3    3  500    0 -2.98877310103E+01 -4.89332498847E+01  1.87494771842E+01  6.03264644489E+01  3.00000000000E-03  0.0000E+00  9.0
       -1    1    3    3    0  500  3.91392807783E+01 -5.34487248091E+00  2.62928520617E+01  4.74527665813E+01  5.00000000000E-03  0.0000E+00  9.0
  3000022    1    3    3    0    0 -9.99352140925E-01 -1.28123463407E+02  1.45504872022E+01  1.42226359223E+02  6.00000000000E+01  0.0000E+00  9.0
       -2    1    4    4    0  504 -2.47367905819E+01  9.36143977607E+01  5.21862573605E-01  9.68289038766E+01  3.00000000000E-03  0.0000E+00  9.0
        1    1    4    4  504    0  8.03141161066E+00 -1.46714777898E+01  4.00505996596E+00  1.71987314453E+01  5.00000000000E-03  0.0000E+00  9.0
  3000022    1    4    4    0    0  8.45318134357E+00  1.03458665800E+02 -6.41164610740E+01  1.35963496515E+02  6.00000000000E+01  0.0000E+00  9.0
</event>
<event>
10    1   3.4312288E-02   4.9980000E+02  -1.0000000E+00   9.3490000E-02
       11   -1    0    0    0    0  0.00000000000E+00  0.00000000000E+00  2.49863461180E+02  2.49863461180E+02  0.00000000000E+00  0.0000E+00  9.0
      -11   -1    0    0    0    0  0.00000000000E+00  0.00000000000E+00 -2.49967259080E+02  2.49967259080E+02  0.00000000000E+00  0.0000E+00  9.0
  3000025    2    1    2    0    0 -1.23483461908E+02 -1.38544791229E+02 -5.01030630793E+01  2.50115299599E+02  1.60014129445E+02  6.2457E-13  9.0
 -3000025    2    1    2    0    0  1.23483461908E+02  1.38544791229E+02  4.99992651803E+01  2.49715420677E+02  1.59420953026E+02  2.5011E-12  9.0
        2    1    3    3  500    0 -9.47567124624E+01 -6.15458597337E+01 -2.95289482174E+01  1.16784785819E+02  3.00000000000E-03  0.0000E+00  9.0
       -1    1    3    3    0  500  3.45233156852E+00 -5.22143855247E+01 -2.99147494003E+01  6.02756410639E+01  5.00000000000E-03  0.0000E+00  9.0
  3000022    1    3    3    0    0 -3.21790810138E+01 -2.47845459705E+01  9.34063453902E+00  7.30548727153E+01  6.00000000000E+01  0.0000E+00  9.0
       -4    1    4    4    0  504 -2.33962089459E+01  4.04232825974E+01  9.04148581187E+00  4.75954657786E+01  1.46817165330E+00  0.0000E+00  9.0
        3    1    4    4  504    0  6.11583229406E+01  5.58016051970E+01  3.24830319708E+01  8.89345094634E+01  2.00000000000E-01  0.0000E+00  9.0
  3000022    1    4    4    0    0  8.57213479145E+01  4.23199034357E+01  8.47474739786E+00  1.13185445436E+02  6.00000000000E+01  0.0000E+00  9.0
</event>
<event>
10    1   3.4312288E-02   4.9660000E+02  -1.0000000E+00   9.3570000E-02
       11   -1    0    0    0    0  0.00000000000E+00  0.00000000000E+00  2.46779557310E+02  2.46779557310E+02  0.00000000000E+00  0.0000E+00  9.0
      -11   -1    0    0    0    0  0.00000000000E+00  0.00000000000E+00 -2.49869796740E+02  2.49869796740E+02  0.00000000000E+00  0.0000E+00  9.0
  3000025    2    1    2    0    0  1.24944217301E+02 -5.75507371392E+01  1.29442184389E+02  2.47505120579E+02  1.59938615822E+02  1.1159E-13  9.0
 -3000025    2    1    2    0    0 -1.24944217301E+02  5.75507371392E+01 -1.32532423829E+02  2.49144233467E+02  1.59952683385E+02  8.9284E-14  9.0
        4    1    3    3  500    0  3.06081271088E+00 -3.28278494236E+01 -2.41724930566E+00  3.30913114645E+01  1.46817165330E+00  0.0000E+00  9.0
       -3    1    3    3    0  500  2.38898074678E+01  1.82165622579E+01 -5.18842525652E+00  3.04881255243E+01  2.00000000000E-01  0.0000E+00  9.0
  3000022    1    3    3    0    0  9.79935971210E+01 -4.29394499729E+01  1.37047858951E+02  1.83925683589E+02  6.00000000000E+01  0.0000E+00  9.0
       -2    1    4    4    0  504 -2.78296038710E+01  7.03405824193E+00  8.47055064111E+00  2.99284991961E+01  3.00000000000E-03  0.0000E+00  9.0
        1    1    4    4  504    0 -7.31005003970E+01  1.93594005106E+01 -1.24388780282E+02  1.45571419693E+02  5.00000000000E-03  0.0000E+00  9.0
  3000022    1    4    4    0    0 -2.40141130328E+01  3.11572783864E+01 -1.66141941891E+01  7.36443145786E+01  6.00000000000E+01  0.0000E+00  9.0
</event>
<event>
10    1   3.4312288E-02   5.0000000E+02  -1.0000000E+00   9.3490000E-02
       11   -1    0    0    0    0  0.00000000000E+00  0.00000000000E+00  2.49999999990E+02  2.49999999990E+02  0.00000000000E+00  0.0000E+00  9.0
      -11   -1    0    0    0    0  0.00000000000E+00  0.00000000000E+00 -2.49999997310E+02  2.49999997310E+02  0.00000000000E+00  0.0000E+00  9.0
  3000025    2    1    2    0    0 -1.08172519014E+02  9.95465766077E+01 -1.23679693905E+02  2.50021132458E+02  1.60009640981E+02  3.1931E-13  9.0
 -3000025    2    1    2    0    0  1.08172519014E+02 -9.95465766077E+01  1.23679696575E+02  2.49978864846E+02  1.59943586119E+02  5.6204E-13  9.0
        4    1    3    3  500    0 -3.24860553089E+01  1.30822884609E+01  9.44832471141E+00  3.63031187195E+01  1.46817165330E+00  0.0000E+00  9.0
       -3    1    3    3    0  500 -6.91475503140E+01  6.64517661853E+01 -1.10289849973E+02  1.46154411328E+02  2.00000000000E-01  0.0000E+00  9.0
  3000022    1    3    3    0    0 -6.53891339133E+00  2.00125219609E+01 -2.28381686427E+01  6.75636024093E+01  6.00000000000E+01  0.0000E+00  9.0
      -14    1    4    4    0    0  9.11682905993E+00 -5.81014560268E+01  4.63101938412E+01  7.48567286097E+01  0.00000000000E+00  0.0000E+00  9.0
       13    1    4    4    0    0  6.03268653938E+00  2.35702385929E+01 -1.63310286878E+00  2.43849882444E+01  1.05700000000E-01  0.0000E+00  9.0
  3000022    1    4    4    0    0  9.30230034150E+01 -6.50153591739E+01  7.90026056024E+01  1.50737147992E+02  6.00000000000E+01  0.0000E+00  9.0
</event>
<event>
10    1   3.4312288E-02   5.0000000E+02  -1.0000000E+00   9.3490000E-02
       11   -1    0    0    0    0  0.00000000000E+00  0.00000000000E+00  2.50000000000E+02  2.50000000000E+02  0.00000000000E+00  0.0000E+00  9.0
      -11   -1    0    0    0    0  0.00000000000E+00  0.00000000000E+00 -2.50000000000E+02  2.50000000000E+02  0.00000000000E+00  0.0000E+00  9.0
  3000025    2    1    2    0    0  4.31589476788E+01 -1.85201978749E+02 -3.03500520679E+01  2.49641424759E+02  1.58862354251E+02  1.3156E-13  9.0
 -3000025    2    1    2    0    0 -4.31589476788E+01  1.85201978749E+02  3.03500520659E+01  2.50358575240E+02  1.59986945839E+02  1.0379E-12  9.0
        2    1    3    3  500    0  1.87203428772E+01  9.03778695074E+00 -1.38561747325E+01  2.49825222431E+01  3.00000000000E-03  0.0000E+00  9.0
       -1    1    3    3    0  500 -2.86181982787E+01 -7.31486811363E+01 -4.93321255454E-02  7.85476497634E+01  5.00000000000E-03  0.0000E+00  9.0
  3000022    1    3    3    0    0  5.30568030802E+01 -1.21091084563E+02 -1.64445452098E+01  1.46111252752E+02  6.00000000000E+01  0.0000E+00  9.0
       -2    1    4    4    0  504  3.59736650901E+01  3.38800839254E+01  8.58423274335E+00  5.01562930009E+01  3.00000000000E-03  0.0000E+00  9.0
        1    1    4    4  504    0 -3.56131384595E+01  6.84376619843E+01 -2.27444305392E+01  8.04320729209E+01  5.00000000000E-03  0.0000E+00  9.0
  3000022    1    4    4    0    0 -4.35194743094E+01  8.28842328398E+01  4.45102498617E+01  1.19770209319E+02  6.00000000000E+01  0.0000E+00  9.0
</event>
<event>
10    1   3.4312288E-02   5.0000000E+02  -1.0000000E+00   9.3490000E-02
       11   -1    0    0    0    0  0.00000000000E+00  0.00000000000E+00  2.49984378340E+02  2.49984378340E+02  0.00000000000E+00  0.0000E+00  9.0
      -11   -1    0    0    0    0  0.00000000000E+00  0.00000000000E+00 -2.49974597660E+02  2.49974597660E+02  0.00000000000E+00  0.0000E+00  9.0
  3000025    2    1    2    0    0  6.27238438356E+01  1.81411726685E+02 -5.08576946772E+00  2.49935397191E+02  1.59991695265E+02  4.2103E-12  9.0
 -3000025    2    1    2    0    0 -6.27238438356E+01 -1.81411726685E+02  5.09555014122E+00  2.50023578801E+02  1.60129104665E+02  1.2836E-12  9.0
       14    1    3    3    0    0 -2.58166558629E+01  5.92123421153E+01 -1.47098719682E+01  6.62493887674E+01  0.00000000000E+00  0.0000E+00  9.0
      -13    1    3    3    0    0  4.42157846217E+01  7.25429565216E+01  3.28931325679E+01  9.11015120249E+01  1.05700000000E-01  0.0000E+00  9.0
  3000022    1    3    3    0    0  4.43247150778E+01  4.96564280475E+01 -2.32690300674E+01  9.25844963990E+01  6.00000000000E+01  0.0000E+00  9.0
       -2    1    4    4    0  500 -1.48974506524E+01  1.88350386135E+00 -1.30534710160E+01  1.98966011495E+01  3.00000000000E-03  0.0000E+00  9.0
        1    1    4    4  500    0  6.40635376184E+00 -1.35119415421E+02  1.08750212694E+01  1.35707641291E+02  5.00000000000E-03  0.0000E+00  9.0
  3000022    1    4    4    0    0 -5.42327469453E+01 -4.81758151236E+01  7.27399988771E+00  9.44193363587E+01  6.00000000000E+01  0.0000E+00  9.0
</event>
<event>
10    1   3.4312288E-02   4.9990000E+02  -1.0000000E+00   9.3490000E-02
       11   -1    0    0    0    0  0.00000000000E+00  0.00000000000E+00  2.49949391360E+02  2.49949391360E+02  0.00000000000E+00  0.0000E+00  9.0
      -11   -1    0    0    0    0  0.00000000000E+00  0.00000000000E+00 -2.49933671800E+02  2.49933671800E+02  0.00000000000E+00  0.0000E+00  9.0
  3000025    2    1    2    0    0  1.03760545661E+02  5.60997994730E+01  1.51290590010E+02  2.50096236950E+02  1.60455123865E+02  1.7155E-12  9.0
 -3000025    2    1    2    0    0 -1.03760545661E+02 -5.60997994730E+01 -1.51274870450E+02  2.49786826201E+02  1.59987292549E+02  5.5503E-12  9.0
        2    1    3    3  500    0  1.20207241952E+00  6.38315043013E-01 -1.99239671257E+01  1.99704005774E+01  3.00000000000E-03  0.0000E+00  9.0
       -1    1    3    3    0  500  7.54979304660E+01  2.74178242467E+01  7.24456284425E+01  1.08166740251E+02  5.00000000000E-03  0.0000E+00  9.0
  3000022    1    3    3    0    0  2.70605427755E+01  2.80436601833E+01  9.87689286940E+01  1.21959096123E+02  6.00000000000E+01  0.0000E+00  9.0
       -2    1    4    4    0  504 -4.15866579164E+01 -1.44070435951E+01 -5.58890904370E+00  4.43649516523E+01  3.00000000000E-03  0.0000E+00  9.0
        1    1    4    4  504    0  1.59896943472E+01  5.65201684422E+00 -7.10663726598E+01  7.30619255683E+01  5.00000000000E-03  0.0000E+00  9.0
  3000022    1    4    4    0    0 -7.81635820905E+01 -4.73447727218E+01 -7.46195887464E+01  1.32359948980E+02  6.00000000000E+01  0.0000E+00  9.0
</event>
<event>
10    1   3.4312288E-02   4.6390000E+02  -1.0000000E+00   9.4330000E-02
       11   -1    0    0    0    0  0.00000000000E+00  0.00000000000E+00  2.45775258670E+02  2.45775258670E+02  0.00000000000E+00  0.0000E+00  9.0
      -11   -1    0    0    0    0  0.00000000000E+00  0.00000000000E+00 -2.18885884300E+02  2.18885884300E+02  0.00000000000E+00  0.0000E+00  9.0
  3000025    2    1    2    0    0  1.09794285586E+02 -6.76859144840E+01 -9.41335500852E+01  2.26022278891E+02  1.59964924707E+02  3.3720E-12  9.0
 -3000025    2    1    2    0    0 -1.09794285586E+02  6.76859144840E+01  1.21022924462E+02  2.38638864078E+02  1.60205465064E+02  1.7584E-12  9.0
       14    1    3    3    0    0  4.73221901389E+01  1.22552464356E+01  1.38974979103E+01  5.08204800539E+01  0.00000000000E+00  0.0000E+00  9.0
      -13    1    3    3    0    0 -1.50698927481E+00 -3.25765365974E+01 -7.16447542514E+00  3.33892592605E+01  1.05700000000E-01  0.0000E+00  9.0
  3000022    1    3    3    0    0  6.39790847217E+01 -4.73646243225E+01 -1.00866572571E+02  1.41812539577E+02  6.00000000000E+01  0.0000E+00  9.0
       -4    1    4    4    0  500  1.03720742470E+01 -9.78751322059E+00  4.07955738203E+01  4.32412963561E+01  1.46817165330E+00  0.0000E+00  9.0
        3    1    4    4  500    0 -5.11646075057E+01  1.37452984836E+01 -7.56599370063E+00  5.35166754600E+01  2.00000000000E-01  0.0000E+00  9.0
  3000022    1    4    4    0    0 -6.90017523256E+01  6.37281292207E+01  8.77933443423E+01  1.41880892261E+02  6.00000000000E+01  0.0000E+00  9.0
</event>
<event>
10    1   3.4312288E-02   4.9190000E+02  -1.0000000E+00   9.3670000E-02
       11   -1    0    0    0    0  0.00000000000E+00  0.00000000000E+00  2.44685206420E+02  2.44685206420E+02  0.00000000000E+00  0.0000E+00  9.0
      -11   -1    0    0    0    0  0.00000000000E+00  0.00000000000E+00 -2.47172785540E+02  2.47172785540E+02  0.00000000000E+00  0.0000E+00  9.0
  3000025    2    1    2    0    0  1.63793610586E+02  1.45489980714E+01 -9.00927415240E+01  2.46434404867E+02  1.59916208100E+02  2.6953E-12  9.0
 -3000025    2    1    2    0    0 -1.63793610586E+02 -1.45489980714E+01  8.76051624000E+01  2.45423587091E+02  1.59743708508E+02  1.6143E-12  9.0
        2    1    3    3  500    0  7.13848756952E+01  1.81084841280E+01 -1.81835530872E+01  7.58574932838E+01  3.00000000000E-03  0.0000E+00  9.0
       -1    1    3    3    0  500  2.80599795869E+01 -1.68800400191E+01 -7.46859774625E+01  8.15493314503E+01  5.00000000000E-03  0.0000E+00  9.0
  3000022    1    3    3    0    0  6.43487553031E+01  1.33205539622E+01  2.77678902543E+00  8.90275801323E+01  6.00000000000E+01  0.0000E+00  9.0
       -2    1    4    4    0  504 -3.99617917573E+01 -3.44171901641E+01  4.14255765767E+01  6.70638962703E+01  3.00000000000E-03  0.0000E+00  9.0
        1    1    4    4  504    0  2.44727364138E+00  3.02293725339E+01 -1.27191880663E+00  3.03549322932E+01  5.00000000000E-03  0.0000E+00  9.0
  3000022    1    4    4    0    0 -1.26279092470E+02 -1.03611804414E+01  4.74515046298E+01  1.48004758527E+02  6.00000000000E+01  0.0000E+00  9.0
</event>
<event>
10    1   3.4312288E-02   4.5080000E+02  -1.0000000E+00   9.4650000E-02
       11   -1    0    0    0    0  0.00000000000E+00  0.00000000000E+00  2.21148602580E+02  2.21148602580E+02  0.00000000000E+00  0.0000E+00  9.0
      -11   -1    0    0    0    0  0.00000000000E+00  0.00000000000E+00 -2.29781255360E+02  2.29781255360E+02  0.00000000000E+00  0.0000E+00  9.0
  3000025    2    1    2    0    0  1.16026205267E+02 -1.04316657382E+02  2.49864616205E+01  2.24962797386E+02  1.60124612809E+02  2.4531E-12  9.0
 -3000025    2    1    2    0    0 -1.16026205267E+02  1.04316657382E+02 -3.36191143995E+01  2.25967060553E+02  1.59958814342E+02  2.2774E-13  9.0
        2    1    3    3  500    0  1.76547261618E+01  8.57928573061E+00 -1.90113371689E+01  2.73262593387E+01  3.00000000000E-03  0.0000E+00  9.0
       -1    1    3    3    0  500  8.70303949877E+01 -9.52421235365E+01  2.65214502373E+01  1.31714612307E+02  5.00000000000E-03  0.0000E+00  9.0
  3000022    1    3    3    0    0  1.13410841190E+01 -1.76538195769E+01  1.74763485529E+01  6.59219257409E+01  6.00000000000E+01  0.0000E+00  9.0
       -2    1    4    4    0  504  2.01705726818E+01  3.45599778552E-01 -2.87030181062E+01  3.50832538246E+01  3.00000000000E-03  0.0000E+00  9.0
        1    1    4    4  504    0 -3.94366326281E+01  5.09840929621E+01  6.51798742822E+00  6.47851056442E+01  5.00000000000E-03  0.0000E+00  9.0
  3000022    1    4    4    0    0 -9.67601453210E+01  5.29869646414E+01 -1.14340837212E+01  1.26098701084E+02  6.00000000000E+01  0.0000E+00  9.0
</event>
<event>
10    1   3.4312288E-02   4.9900000E+02  -1.0000000E+00   9.3510000E-02
       11   -1    0    0    0    0  0.00000000000E+00  0.00000000000E+00  2.49272682560E+02  2.49272682560E+02  0.00000000000E+00  0.0000E+00  9.0
      -11   -1    0    0    0    0  0.00000000000E+00  0.00000000000E+00 -2.49767289010E+02  2.49767289010E+02  0.00000000000E+00  0.0000E+00  9.0
  3000025    2    1    2    0    0 -9.54033484322E+01  8.26048827201E+01  1.43834310613E+02  2.49460363161E+02  1.60052486196E+02  2.9968E-13  9.0
 -3000025    2    1    2    0    0  9.54033484322E+01 -8.26048827201E+01 -1.44328917063E+02  2.49579608400E+02  1.59792925648E+02  3.9705E-13  9.0
        4    1    3    3  500    0 -5.03532328816E+00  3.36946546425E+01 -4.88738030297E+00  3.44488932525E+01  1.46817165330E+00  0.0000E+00  9.0
       -3    1    3    3    0  500 -3.12850178120E+00 -9.45323859626E+00  7.00797818350E+01  7.07839463819E+01  2.00000000000E-01  0.0000E+00  9.0
  3000022    1    3    3    0    0 -8.72395233620E+01  5.83634666749E+01  7.86419090816E+01  1.44227523527E+02  6.00000000000E+01  0.0000E+00  9.0
      -14    1    4    4    0    0  2.65986852472E+01 -9.31342007651E+00 -7.46270675247E+01  7.97711041527E+01  0.00000000000E+00  0.0000E+00  9.0
       13    1    4    4    0    0  5.89795058257E+01 -1.96543496625E+01  1.08598067353E+00  6.21776977268E+01  1.05700000000E-01  0.0000E+00  9.0
  3000022    1    4    4    0    0  9.82515735917E+00 -5.36371129810E+01 -7.07878302124E+01  1.07630806521E+02  6.00000000000E+01  0.0000E+00  9.0
</event>
<event>
10    1   3.4312288E-02   4.9920000E+02  -1.0000000E+00   9.3510000E-02
       11   -1    0    0    0    0  0.00000000000E+00  0.00000000000E+00  2.49997919320E+02  2.49997919320E+02  0.00000000000E+00  0.0000E+00  9.0
      -11   -1    0    0    0    0  0.00000000000E+00  0.00000000000E+00 -2.49252556960E+02  2.49252556960E+02  0.00000000000E+00  0.0000E+00  9.0
  3000025    2    1    2    0    0 -1.52682211047E+02 -5.27585595940E+01 -1.02820942658E+02  2.49507344245E+02  1.59957636274E+02  3.0273E-12  9.0
 -3000025    2    1    2    0    0  1.52682211047E+02  5.27585595940E+01  1.03566305018E+02  2.49743132028E+02  1.59844703632E+02  2.7119E-13  9.0
        4    1    3    3  500    0 -7.26836985408E+01  9.51787241964E+00 -6.44886603379E+01  9.76445224739E+01  1.46817165330E+00  0.0000E+00  9.0
       -3    1    3    3    0  500 -4.42952025392E+01 -4.99540509618E+01 -4.52101638123E+01  8.06317002637E+01  2.00000000000E-01  0.0000E+00  9.0
  3000022    1    3    3    0    0 -3.57033099675E+01 -1.23223810522E+01  6.87788149244E+00  7.12311215078E+01  6.00000000000E+01  0.0000E+00  9.0
      -14    1    4    4    0    0  6.14571616778E+01  5.69570578244E+01 -3.10942335484E+00  8.38496134225E+01  0.00000000000E+00  0.0000E+00  9.0
       13    1    4    4    0    0 -2.58683845816E+00 -4.83707928367E+00  3.04582077229E+01  3.09483870240E+01  1.05700000000E-01  0.0000E+00  9.0
  3000022    1    4    4    0    0  9.38118878272E+01  6.38581053260E-01  7.62175206496E+01  1.34945131581E+02  6.00000000000E+01  0.0000E+00  9.0
</event>
<event>
10    1   3.4312288E-02   4.9580000E+02  -1.0000000E+00   9.3580000E-02
       11   -1    0    0    0    0  0.00000000000E+00  0.00000000000E+00  2.50000000000E+02  2.50000000000E+02  0.00000000000E+00  0.0000E+00  9.0
      -11   -1    0    0    0    0  0.00000000000E+00  0.00000000000E+00 -2.45839644060E+02  2.45839644060E+02  0.00000000000E+00  0.0000E+00  9.0
  3000025    2    1    2    0    0  1.24597407495E+02 -1.68093731538E+01  1.43571247860E+02  2.49169706627E+02  1.60205400995E+02  6.1758E-13  9.0
 -3000025    2    1    2    0    0 -1.24597407495E+02  1.68093731538E+01 -1.39410891920E+02  2.46669937429E+02  1.60011225435E+02  7.3516E-14  9.0
        4    1    3    3  500    0  5.86818156316E+01  4.51670181091E+01  7.86275218503E+01  1.08018784158E+02  1.46817165330E+00  0.0000E+00  9.0
       -3    1    3    3    0  500  9.21450083815E+00 -1.00630211234E+01 -1.10172634010E+01  1.75382870507E+01  2.00000000000E-01  0.0000E+00  9.0
  3000022    1    3    3    0    0  5.67010910248E+01 -5.19133701395E+01  7.59609894107E+01  1.23612635418E+02  6.00000000000E+01  0.0000E+00  9.0
       -4    1    4    4    0  504 -1.62442946553E+01  3.58873443563E+01  4.61052912887E+00  3.96886772348E+01  1.46817165330E+00  0.0000E+00  9.0
        3    1    4    4  504    0 -2.01786017520E+01 -3.52370257422E+01 -3.49057546339E+01  5.35469481705E+01  2.00000000000E-01  0.0000E+00  9.0
  3000022    1    4    4    0    0 -8.81745110868E+01  1.61590545390E+01 -1.09115666414E+02  1.53434312023E+02  6.00000000000E+01  0.0000E+00  9.0
</event>
<event>
10    1   3.4312288E-02   4.9790000E+02  -1.0000000E+00   9.3540000E-02
       11   -1    0    0    0    0  0.00000000000E+00  0.00000000000E+00  2.49999999880E+02  2.49999999880E+02  0.00000000000E+00  0.0000E+00  9.0
      -11   -1    0    0    0    0  0.00000000000E+00  0.00000000000E+00 -2.47953081730E+02  2.47953081730E+02  0.00000000000E+00  0.0000E+00  9.0
  3000025    2    1    2    0    0 -8.55722924733E+01 -1.68776702096E+02 -2.26954898208E+01  2.48927953888E+02  1.60130723345E+02  6.1685E-13  9.0
 -3000025    2    1    2    0    0  8.55722924733E+01  1.68776702096E+02  2.47424079668E+01  2.49025127726E+02  1.59978545679E+02  1.0329E-13  9.0
        2    1    3    3  500    0 -4.43547866060E+01 -4.91168134780E+00 -7.55472627268E+00  4.52608617526E+01  3.00000000000E-03  0.0000E+00  9.0
       -1    1    3    3    0  500 -1.23766169956E+01 -9.54802759349E+01 -4.12184092582E+01  1.04731184600E+02  5.00000000000E-03  0.0000E+00  9.0
  3000022    1    3    3    0    0 -2.88408888713E+01 -6.83847448129E+01  2.60776457101E+01  9.89359075351E+01  6.00000000000E+01  0.0000E+00  9.0
       -2    1    4    4    0  504  2.93264641524E+01  5.58928706246E+01 -4.72812993087E+01  7.88642869724E+01  3.00000000000E-03  0.0000E+00  9.0
        1    1    4    4  504    0 -6.43421009326E+00  1.61514026965E+01  2.80029511709E+01  3.29610704903E+01  5.00000000000E-03  0.0000E+00  9.0
  3000022    1    4    4    0    0  6.26800384135E+01  9.67324287748E+01  4.40207561056E+01  1.37199770263E+02  6.00000000000E+01  0.0000E+00  9.0
</event>
<event>
10    1   3.4312288E-02   4.9650000E+02  -1.0000000E+00   9.3570000E-02
       11   -1    0    0    0    0  0.00000000000E+00  0.00000000000E+00  2.49652664490E+02  2.49652664490E+02  0.00000000000E+00  0.0000E+00  9.0
      -11   -1    0    0    0    0  0.00000000000E+00  0.00000000000E+00 -2.46810467020E+02  2.46810467020E+02  0.00000000000E+00  0.0000E+00  9.0
  3000025    2    1    2    0    0 -1.50446706171E+02 -1.04340224409E+02 -4.84311576942E+01  2.47946725857E+02  1.60034083870E+02  3.5568E-13  9.0
 -3000025    2    1    2    0    0  1.50446706171E+02  1.04340224409E+02  5.12733551632E+01  2.48516405663E+02  1.60032350188E+02  3.5267E-12  9.0
        2    1    3    3  500    0  8.15832773645E+00  2.73142761750E+00 -2.32536571061E+01  2.47941845217E+01  3.00000000000E-03  0.0000E+00  9.0
       -1    1    3    3    0  500 -9.72876894944E+01 -2.12428356268E+01 -1.96044889622E+00  9.95991765905E+01  5.00000000000E-03  0.0000E+00  9.0
  3000022    1    3    3    0    0 -6.13173444131E+01 -8.58288164008E+01 -2.32170516920E+01  1.23553364745E+02  6.00000000000E+01  0.0000E+00  9.0
       -4    1    4    4    0  504  4.04251130695E+01  7.48976102158E+01  6.46006086460E+01  1.06860825133E+02  1.46817165330E+00  0.0000E+00  9.0
        3    1    4    4  504    0  3.58702168411E+01  1.78058888019E+01 -2.10694103614E+01  4.52513224694E+01  2.00000000000E-01  0.0000E+00  9.0
  3000022    1    4    4    0    0  7.41513762600E+01  1.16367253921E+01  7.74215687970E+00  9.64042580608E+01  6.00000000000E+01  0.0000E+00  9.0
</event>
<event>
10    1   3.4312288E-02   4.6570000E+02  -1.0000000E+00   9.4280000E-02
       11   -1    0    0    0    0  0.00000000000E+00  0.00000000000E+00  2.16862533860E+02  2.16862533860E+02  0.00000000000E+00  0.0000E+00  9.0
      -11   -1    0    0    0    0  0.00000000000E+00  0.00000000000E+00 -2.49965035000E+02  2.49965035000E+02  0.00000000000E+00  0.0000E+00  9.0
  3000025    2    1    2    0    0 -1.35055659222E+02  8.99891309876E+01 -6.43006760713E+01  2.36794661735E+02  1.59997062782E+02  1.7025E-12  9.0
 -3000025    2    1    2    0    0  1.35055659222E+02 -8.99891309876E+01  3.11981749343E+01  2.30032907130E+02  1.60011679135E+02  2.3798E-12  9.0
        4    1    3    3  500    0 -8.49969713620E+01  7.66185746343E+01 -6.19885130100E+01  1.30152304601E+02  1.46817165330E+00  0.0000E+00  9.0
       -3    1    3    3    0  500 -2.66971536390E+01  1.14612901930E+01  2.33788972001E+01  3.72922514688E+01  2.00000000000E-01  0.0000E+00  9.0
  3000022    1    3    3    0    0 -2.33615342208E+01  1.90926616080E+00 -2.56910602607E+01  6.93501056650E+01  6.00000000000E+01  0.0000E+00  9.0
       -4    1    4    4    0  504  5.32492355483E+01 -7.96604613788E+01  5.35723602643E+01  1.09788084535E+02  1.46817165330E+00  0.0000E+00  9.0
        3    1    4    4  504    0  2.10308181456E+01 -9.02253156495E+00 -2.61479759110E+01  3.47484968301E+01  2.00000000000E-01  0.0000E+00  9.0
  3000022    1    4    4    0    0  6.07756055283E+01 -1.30613804373E+00  3.77379058167E+00  8.54963257648E+01  6.00000000000E+01  0.0000E+00  9.0
</event>
<event>
10    1   3.4312288E-02   4.9130000E+02  -1.0000000E+00   9.3690000E-02
       11   -1    0    0    0    0  0.00000000000E+00  0.00000000000E+00  2.49969621430E+02  2.49969621430E+02  0.00000000000E+00  0.0000E+00  9.0
      -11   -1    0    0    0    0  0.00000000000E+00  0.00000000000E+00 -2.41396964930E+02  2.41396964930E+02  0.00000000000E+00  0.0000E+00  9.0
  3000025    2    1    2    0    0  5.76553634215E+00 -1.70020752680E+02  7.99223794334E+01  2.47157893420E+02  1.60496541379E+02  3.8981E-13  9.0
 -3000025    2    1    2    0    0 -5.76553634215E+00  1.70020752680E+02 -7.13497229254E+01  2.44208692939E+02  1.60021264194E+02  2.9005E-12  9.0
        2    1    3    3  500    0 -1.93290402213E+01 -9.78268154166E+01  2.36150286069E+01  1.02476178674E+02  3.00000000000E-03  0.0000E+00  9.0
       -1    1    3    3    0  500  8.32640921612E+00 -2.16377225289E+01  6.00425612351E+01  6.43632605711E+01  5.00000000000E-03  0.0000E+00  9.0
  3000022    1    3    3    0    0  1.67681673472E+01 -5.05562147362E+01 -3.73521040755E+00  8.03184541773E+01  6.00000000000E+01  0.0000E+00  9.0
       -2    1    4    4    0  504 -4.10091975367E+01  4.83437046277E+01 -4.09417976868E+01  7.54658788232E+01  3.00000000000E-03  0.0000E+00  9.0
        1    1    4    4  504    0  3.66899532378E+00  1.56068726698E+01  2.61973828038E+01  3.07138224906E+01  5.00000000000E-03  0.0000E+00  9.0
  3000022    1    4    4    0    0  3.15746658708E+01  1.06070175383E+02 -5.66053080414E+01  1.38028991625E+02  6.00000000000E+01  0.0000E+00  9.0
</event>
<event>
10    1   3.4312288E-02   4.9140000E+02  -1.0000000E+00   9.3680000E-02
       11   -1    0    0    0    0  0.00000000000E+00  0.00000000000E+00  2.41697789110E+02  2.41697789110E+02  0.00000000000E+00  0.0000E+00  9.0
      -11   -1    0    0    0    0  0.00000000000E+00  0.00000000000E+00 -2.49738887690E+02  2.49738887690E+02  0.00000000000E+00  0.0000E+00  9.0
  3000025    2    1    2    0    0 -8.73604529283E+01 -1.19066124954E+02 -1.17878461015E+02  2.47538088230E+02  1.59909920599E+02  4.3568E-13  9.0
 -3000025    2    1    2    0    0  8.73604529283E+01  1.19066124954E+02  1.09837362435E+02  2.43898588574E+02  1.60042758268E+02  5.8054E-14  9.0
        2    1    3    3  500    0 -3.78186895492E+01  2.28302213122E+00 -7.06698845269E+01  8.01853980305E+01  3.00000000000E-03  0.0000E+00  9.0
       -1    1    3    3    0  500 -3.93551921861E+01 -6.25948429952E+01 -3.52769829346E+01  8.19232022785E+01  5.00000000000E-03  0.0000E+00  9.0
  3000022    1    3    3    0    0 -1.01865711935E+01 -5.87543040894E+01 -1.19315935540E+01  8.54294879210E+01  6.00000000000E+01  0.0000E+00  9.0
      -14    1    4    4    0    0  4.33274819238E+01  5.77774782729E+01  8.62049867206E+01  1.12458025151E+02  0.00000000000E+00  0.0000E+00  9.0
       13    1    4    4    0    0 -2.17541553574E+01  3.64351320205E+00 -2.49986045335E+00  2.21986246993E+01  1.05700000000E-01  0.0000E+00  9.0
  3000022    1    4    4    0    0  6.57871263622E+01  5.76451334799E+01  2.61322361680E+01  1.09241938723E+02  6.00000000000E+01  0.0000E+00  9.0
</event>
<event>
10    1   3.4312288E-02   4.9500000E+02  -1.0000000E+00   9.3600000E-02
       11   -1    0    0    0    0  0.00000000000E+00  0.00000000000E+00  2.46308917100E+02  2.46308917100E+02  0.00000000000E+00  0.0000E+00  9.0
      -11   -1    0    0    0    0  0.00000000000E+00  0.00000000000E+00 -2.48651984710E+02  2.48651984710E+02  0.00000000000E+00  0.0000E+00  9.0
  3000025    2    1    2    0    0  1.84431354428E+02 -2.34172207168E+01 -3.40713166348E+01  2.47684180157E+02  1.60072820181E+02  5.2078E-14  9.0
 -3000025    2    1    2    0    0 -1.84431354428E+02  2.34172207168E+01  3.17282490268E+01  2.47276721648E+02  1.59924371378E+02  6.4567E-13  9.0
        2    1    3    3  500    0  5.37066649310E+01 -3.86988658018E+01  2.80516729584E+01  7.18950932757E+01  3.00000000000E-03  0.0000E+00  9.0
       -1    1    3    3    0  500  4.25093714856E+01  3.39607789626E+01 -8.98215944678E+00  5.51458102232E+01  5.00000000000E-03  0.0000E+00  9.0
  3000022    1    3    3    0    0  8.82153180113E+01 -1.86791338772E+01 -5.31408301463E+01  1.20643276658E+02  6.00000000000E+01  0.0000E+00  9.0
       -2    1    4    4    0  504 -8.74166766349E+01 -2.63685211250E+00  1.91087719037E+01  8.95196822806E+01  3.00000000000E-03  0.0000E+00  9.0
        1    1    4    4  504    0  9.54360512970E+00 -1.99768059128E+01 -1.13999856832E+01  2.49020656157E+01  5.00000000000E-03  0.0000E+00  9.0
  3000022    1    4    4    0    0 -1.06558282923E+02  4.60308787419E+01  2.40194628062E+01  1.32854973752E+02  6.00000000000E+01  0.0000E+00  9.0
</event>
<event>
10    1   3.4312288E-02   4.9970000E+02  -1.0000000E+00   9.3500000E-02
       11   -1    0    0    0    0  0.00000000000E+00  0.00000000000E+00  2.49730556590E+02  2.49730556590E+02  0.00000000000E+00  0.0000E+00  9.0
      -11   -1    0    0    0    0  0.00000000000E+00  0.00000000000E+00 -2.50000000000E+02  2.50000000000E+02  0.00000000000E+00  0.0000E+00  9.0
  3000025    2    1    2    0    0  8.13246407780E+01 -1.49681350802E+02 -8.83834649316E+01  2.49947322892E+02  1.60136889479E+02  1.3464E-12  9.0
 -3000025    2    1    2    0    0 -8.13246407780E+01  1.49681350802E+02  8.81140215236E+01  2.49783233700E+02  1.60029306918E+02  1.8745E-13  9.0
        4    1    3    3  500    0  5.58062182996E+01 -7.32754312358E+01 -2.25001743219E+01  9.48263475845E+01  1.46817165330E+00  0.0000E+00  9.0
       -3    1    3    3    0  500 -2.58378515876E+01 -5.14915840678E+01 -2.79223495378E+01  6.40208982145E+01  2.00000000000E-01  0.0000E+00  9.0
  3000022    1    3    3    0    0  5.13562740660E+01 -2.49143354985E+01 -3.79609410720E+01  9.11000770930E+01  6.00000000000E+01  0.0000E+00  9.0
       -2    1    4    4    0  504 -1.53545310119E+00  9.78170585505E+01  7.54771275677E+01  1.23561043030E+02  3.00000000000E-03  0.0000E+00  9.0
        1    1    4    4  504    0 -2.64314115119E+01 -4.71757625875E+00  7.42525327896E+00  2.78569461988E+01  5.00000000000E-03  0.0000E+00  9.0
  3000022    1    4    4    0    0 -5.33577761640E+01  5.65818685110E+01  5.21164067718E+00  9.83652444714E+01  6.00000000000E+01  0.0000E+00  9.0
</event>
<event>
10    1   3.4312288E-02   4.8950000E+02  -1.0000000E+00   9.3730000E-02
       11   -1    0    0    0    0  0.00000000000E+00  0.00000000000E+00  2.39614294710E+02  2.39614294710E+02  0.00000000000E+00  0.0000E+00  9.0
      -11   -1    0    0    0    0  0.00000000000E+00  0.00000000000E+00 -2.49999849860E+02  2.49999849860E+02  0.00000000000E+00  0.0000E+00  9.0
  3000025    2    1    2    0    0 -7.48299116668E+01 -1.37761078052E+02 -1.03884949249E+02  2.46973288349E+02  1.60081517270E+02  2.5454E-12  9.0
 -3000025    2    1    2    0    0  7.48299116668E+01  1.37761078052E+02  9.34993940955E+01  2.42640856223E+02  1.59858744228E+02  1.6069E-12  9.0
        4    1    3    3  500    0 -7.95023838984E+00 -6.20849352137E+01 -6.29087307661E+01  8.87547711706E+01  1.46817165330E+00  0.0000E+00  9.0
       -3    1    3    3    0  500 -1.17283483343E+00 -1.85795204286E+01  2.68026878810E+01  3.26343101436E+01  2.00000000000E-01  0.0000E+00  9.0
  3000022    1    3    3    0    0 -6.57068384435E+01 -5.70966224103E+01 -6.77789063624E+01  1.25584207035E+02  6.00000000000E+01  0.0000E+00  9.0
       -2    1    4    4    0  504  3.61215909887E+01 -1.81978057813E+01  2.85958644911E+01  4.95343612637E+01  3.00000000000E-03  0.0000E+00  9.0
        1    1    4    4  504    0 -7.60395945471E+00  4.70761284818E+01  6.40097141388E+00  4.81139743969E+01  5.00000000000E-03  0.0000E+00  9.0
  3000022    1    4    4    0    0  4.63122801330E+01  1.08882755352E+02  5.85025581906E+01  1.44992520562E+02  6.00000000000E+01  0.0000E+00  9.0
</event>
<event>
10    1   3.4312288E-02   4.9860000E+02  -1.0000000E+00   9.3520000E-02
       11   -1    0    0    0    0  0.00000000000E+00  0.00000000000E+00  2.48605037930E+02  2.48605037930E+02  0.00000000000E+00  0.0000E+00  9.0
      -11   -1    0    0    0    0  0.00000000000E+00  0.00000000000E+00 -2.50000000000E+02  2.50000000000E+02  0.00000000000E+00  0.0000E+00  9.0
  3000025    2    1    2    0    0 -6.42907516509E+01  1.07516752582E+02 -1.45766823956E+02  2.50079599147E+02  1.59995894040E+02  1.2981E-12  9.0
 -3000025    2    1    2    0    0  6.42907516509E+01 -1.07516752582E+02  1.44371861886E+02  2.48525438785E+02  1.58834839960E+02  1.8198E-12  9.0
        4    1    3    3  500    0 -3.89263852625E+01 -6.86971919442E+00  4.40255250369E+00  3.97994284880E+01  1.46817165330E+00  0.0000E+00  9.0
       -3    1    3    3    0  500  1.72307451436E+01  3.03058799441E+01 -4.41433948104E+01  5.62496599348E+01  2.00000000000E-01  0.0000E+00  9.0
  3000022    1    3    3    0    0 -4.25951115323E+01  8.40805918324E+01 -1.06025981651E+02  1.54030510726E+02  6.00000000000E+01  0.0000E+00  9.0
       -4    1    4    4    0  504  1.52454096362E+01 -9.96234977687E-01  5.58302839394E+01  5.79015641574E+01  1.46817165330E+00  0.0000E+00  9.0
        3    1    4    4  504    0  1.95506643058E+01 -2.06411903789E+01 -2.16571724263E+01  3.57401781271E+01  2.00000000000E-01  0.0000E+00  9.0
  3000022    1    4    4    0    0  2.94946777090E+01 -8.58793272258E+01  1.10198750375E+02  1.54883696502E+02  6.00000000000E+01  0.0000E+00  9.0
</event>
<event>
10    1   3.4312288E-02   4.9630000E+02  -1.0000000E+00   9.3570000E-02
       11   -1    0    0    0    0  0.00000000000E+00  0.00000000000E+00  2.49999999970E+02  2.49999999970E+02  0.00000000000E+00  0.0000E+00  9.0
      -11   -1    0    0    0    0  0.00000000000E+00  0.00000000000E+00 -2.46307037960E+02  2.46307037960E+02  0.00000000000E+00  0.0000E+00  9.0
  3000025    2    1    2    0    0  1.70094942006E+02  5.28889594745E+01  6.70864260458E+01  2.48617533486E+02  1.59939232420E+02  5.3718E-13  9.0
 -3000025    2    1    2    0    0 -1.70094942006E+02 -5.28889594745E+01 -6.33934640408E+01  2.47689504443E+02  1.60005712392E+02  6.6365E-13  9.0
       14    1    3    3    0    0  1.39828941637E+01  1.87196024686E+01 -1.98790604301E+01  3.06777099758E+01  0.00000000000E+00  0.0000E+00  9.0
      -13    1    3    3    0    0  3.99197200783E+01 -1.33671518330E+00  7.10457186611E+01  8.15038414504E+01  1.05700000000E-01  0.0000E+00  9.0
  3000022    1    3    3    0    0  1.16192327764E+02  3.55060721889E+01  1.59197678148E+01  1.36435982060E+02  6.00000000000E+01  0.0000E+00  9.0
       -2    1    4    4    0  500 -2.26648838360E+00  1.98982358588E+01  1.76404886683E+01  2.66882672600E+01  3.00000000000E-03  0.0000E+00  9.0
        1    1    4    4  500    0 -9.13816204555E+01 -2.01002898443E+01 -2.39241485751E+01  9.65763279430E+01  5.00000000000E-03  0.0000E+00  9.0
  3000022    1    4    4    0    0 -7.64468331665E+01 -5.26869054889E+01 -5.71098041346E+01  1.24424909240E+02  6.00000000000E+01  0.0000E+00  9.0
</event>
<event>
10    1   3.4312288E-02   3.9010000E+02  -1.0000000E+00   9.6320000E-02
       11   -1    0    0    0    0  0.00000000000E+00  0.00000000000E+00  2.50000000000E+02  2.50000000000E+02  0.00000000000E+00  0.0000E+00  9.0
      -11   -1    0    0    0    0  0.00000000000E+00  0.00000000000E+00 -1.52177001500E+02  1.52177001500E+02  0.00000000000E+00  0.0000E+00  9.0
  3000025    2    1    2    0    0  8.16757956915E+00  1.10906410240E+02  6.21582330947E+01  2.04068010345E+02  1.59415073680E+02  9.6536E-13  9.0
 -3000025    2    1    2    0    0 -8.16757956915E+00 -1.10906410240E+02  3.56647654033E+01  1.98108991153E+02  1.60025796970E+02  3.5257E-13  9.0
        4    1    3    3  500    0 -8.13523947751E+00 -8.11225812560E+00 -9.33695855790E+00  1.48770015920E+01  1.46817165330E+00  0.0000E+00  9.0
       -3    1    3    3    0  500  4.15115972308E+01  7.31720334365E+01  7.02053999083E+01  1.09572794790E+02  2.00000000000E-01  0.0000E+00  9.0
  3000022    1    3    3    0    0 -2.52087781835E+01  4.58466349284E+01  1.28979174423E+00  7.96182139620E+01  6.00000000000E+01  0.0000E+00  9.0
       -2    1    4    4    0  504 -2.33660622662E+00 -6.98545503126E+01  1.53702703001E+01  7.15636999193E+01  3.00000000000E-03  0.0000E+00  9.0
        1    1    4    4  504    0  2.70974072971E+01  1.39689686749E+01 -1.23026864557E+01  3.28748792711E+01  5.00000000000E-03  0.0000E+00  9.0
  3000022    1    4    4    0    0 -3.29283806392E+01 -5.50208286030E+01  3.25971815589E+01  9.36704119627E+01  6.00000000000E+01  0.0000E+00  9.0
</event>
<event>
10    1   3.4312288E-02   4.9840000E+02  -1.0000000E+00   9.3530000E-02
       11   -1    0    0    0    0  0.00000000000E+00  0.00000000000E+00  2.49866843140E+02  2.49866843140E+02  0.00000000000E+00  0.0000E+00  9.0
      -11   -1    0    0    0    0  0.00000000000E+00  0.00000000000E+00 -2.48486143300E+02  2.48486143300E+02  0.00000000000E+00  0.0000E+00  9.0
  3000025    2    1    2    0    0 -1.07547176543E+02  1.32524871539E+02 -8.51240613305E+01  2.48938342394E+02  1.59984235903E+02  3.4539E-13  9.0
 -3000025    2    1    2    0    0  1.07547176543E+02 -1.32524871539E+02  8.65047611685E+01  2.49414644053E+02  1.59985481229E+02  1.2349E-12  9.0
        2    1    3    3  500    0 -5.95844191767E+01  3.46161296607E+01 -5.18525878311E+00  6.91047491780E+01  3.00000000000E-03  0.0000E+00  9.0
       -1    1    3    3    0  500 -7.23061396748E+00  6.67134620281E+00 -6.09623632168E+01  6.17511003341E+01  5.00000000000E-03  0.0000E+00  9.0
  3000022    1    3    3    0    0 -4.07321433993E+01  9.12373956754E+01 -1.89764393306E+01  1.18082492882E+02  6.00000000000E+01  0.0000E+00  9.0
       -2    1    4    4    0  504  2.47683625137E+00 -2.29725322593E+01  5.57989905525E+01  6.03937025847E+01  3.00000000000E-03  0.0000E+00  9.0
        1    1    4    4  504    0  6.05799738847E+01 -9.01066173382E+00  9.07827184682E+00  6.19155901650E+01  5.00000000000E-03  0.0000E+00  9.0
  3000022    1    4    4    0    0  4.44903664069E+01 -1.00541677546E+02  2.16274987691E+01  1.27105351303E+02  6.00000000000E+01  0.0000E+00  9.0
</event>
<event>
10    1   3.4312288E-02   4.5640000E+02  -1.0000000E+00   9.4510000E-02
       11   -1    0    0    0    0  0.00000000000E+00  0.00000000000E+00  2.13173347670E+02  2.13173347670E+02  0.00000000000E+00  0.0000E+00  9.0
      -11   -1    0    0    0    0  0.00000000000E+00  0.00000000000E+00 -2.44238253610E+02  2.44238253610E+02  0.00000000000E+00  0.0000E+00  9.0
  3000025    2    1    2    0    0  1.61817927811E+02  7.04059249024E+00 -3.14793682428E+01  2.29740512223E+02  1.59859752995E+02  5.4440E-13  9.0
 -3000025    2    1    2    0    0 -1.61817927811E+02 -7.04059249024E+00  4.14462304245E-01  2.27671089045E+02  1.59997941562E+02  2.1286E-12  9.0
        2    1    3    3  500    0  1.05448479453E+02  7.67668017054E+00 -2.11910624829E+01  1.07830303605E+02  3.00000000000E-03  0.0000E+00  9.0
       -1    1    3    3    0  500 -3.96251090618E+00  2.32126033685E+01 -2.26614292356E+01  3.26812920159E+01  5.00000000000E-03  0.0000E+00  9.0
  3000022    1    3    3    0    0  6.03319592634E+01 -2.38486910483E+01  1.23731234759E+01  8.92289166012E+01  6.00000000000E+01  0.0000E+00  9.0
       -4    1    4    4    0  504 -7.43055159747E+01  3.48699890589E+00 -3.63390663259E+01  8.28018848522E+01  1.46817165330E+00  0.0000E+00  9.0
        3    1    4    4  504    0  1.01213296852E+01  1.83032797557E+01  1.20772074920E+01  2.41526459258E+01  2.00000000000E-01  0.0000E+00  9.0
  3000022    1    4    4    0    0 -9.76337415220E+01 -2.88308711519E+01  2.46763211382E+01  1.20716558267E+02  6.00000000000E+01  0.0000E+00  9.0
</event>
<event>
10    1   3.4312288E-02   4.6740000E+02  -1.0000000E+00   9.4240000E-02
       11   -1    0    0    0    0  0.00000000000E+00  0.00000000000E+00  2.39286083030E+02  2.39286083030E+02  0.00000000000E+00  0.0000E+00  9.0
      -11   -1    0    0    0    0  0.00000000000E+00  0.00000000000E+00 -2.28263713720E+02  2.28263713720E+02  0.00000000000E+00  0.0000E+00  9.0
  3000025    2    1    2    0    0  9.80496223751E+01 -1.38262693015E+02  2.07791955166E+01  2.34100388825E+02  1.60127812556E+02  7.9599E-13  9.0
 -3000025    2    1    2    0    0 -9.80496223751E+01  1.38262693015E+02 -9.75682621424E+00  2.33449407924E+02  1.60228367259E+02  8.6084E-13  9.0
        2    1    3    3  500    0  3.06368846533E+01 -2.83610254363E+01 -3.59752363302E+01  5.51106532630E+01  3.00000000000E-03  0.0000E+00  9.0
       -1    1    3    3    0  500 -1.03230490817E+01 -4.97190344169E+00  3.09193764222E+01  3.29741266680E+01  5.00000000000E-03  0.0000E+00  9.0
  3000022    1    3    3    0    0  7.77357868028E+01 -1.04929764136E+02  2.58350554246E+01  1.46015608893E+02  6.00000000000E+01  0.0000E+00  9.0
       -2    1    4    4    0  504 -5.41449027232E+01  4.20045284695E+01 -1.83246464024E+01  7.09354888446E+01  3.00000000000E-03  0.0000E+00  9.0
        1    1    4    4  504    0 -7.60500154350E-01  8.72956517814E+01  1.12611160699E+01  8.80222809325E+01  5.00000000000E-03  0.0000E+00  9.0
  3000022    1    4    4    0    0 -4.31442194979E+01  8.96251276428E+00 -2.69329588146E+00  7.44916381471E+01  6.00000000000E+01  0.0000E+00  9.0
</event>
<event>
10    1   3.4312288E-02   4.9690000E+02  -1.0000000E+00   9.3560000E-02
       11   -1    0    0    0    0  0.00000000000E+00  0.00000000000E+00  2.47830471570E+02  2.47830471570E+02  0.00000000000E+00  0.0000E+00  9.0
      -11   -1    0    0    0    0  0.00000000000E+00  0.00000000000E+00 -2.49074967830E+02  2.49074967830E+02  0.00000000000E+00  0.0000E+00  9.0
  3000025    2    1    2    0    0  4.69374025735E+01 -1.83958817809E+02 -8.62155163881E+00  2.48486189613E+02  1.60084630324E+02  3.7041E-12  9.0
 -3000025    2    1    2    0    0 -4.69374025735E+01  1.83958817809E+02  7.37705538081E+00  2.48419249788E+02  1.60042920209E+02  5.9536E-13  9.0
        4    1    3    3  500    0  2.99537857041E+00  1.53733226124E+01 -7.33950595797E-01  1.57481920361E+01  1.46817165330E+00  0.0000E+00  9.0
       -3    1    3    3    0  500 -7.19976821809E+00 -9.88183392007E+01 -2.90537766746E+01  1.03252422557E+02  2.00000000000E-01  0.0000E+00  9.0
  3000022    1    3    3    0    0  5.11417922215E+01 -1.00513801221E+02  2.11661756325E+01  1.29485575020E+02  6.00000000000E+01  0.0000E+00  9.0
       -2    1    4    4    0  504 -3.84628141514E+01  8.56277971398E+01  3.62625382544E+00  9.39396478664E+01  3.00000000000E-03  0.0000E+00  9.0
        1    1    4    4  504    0  3.91776399589E+01  4.96720018327E+01 -3.96077754510E+00  6.33867732463E+01  5.00000000000E-03  0.0000E+00  9.0
  3000022    1    4    4    0    0 -4.76522283811E+01  4.86590188363E+01  7.71157910048E+00  9.10928286750E+01  6.00000000000E+01  0.0000E+00  9.0
</event>
<event>
10    1   3.4312288E-02   4.8530000E+02  -1.0000000E+00   9.3820000E-02
       11   -1    0    0    0    0  0.00000000000E+00  0.00000000000E+00  2.39089688090E+02  2.39089688090E+02  0.00000000000E+00  0.0000E+00  9.0
      -11   -1    0    0    0    0  0.00000000000E+00  0.00000000000E+00 -2.46225558280E+02  2.46225558280E+02  0.00000000000E+00  0.0000E+00  9.0
  3000025    2    1    2    0    0  1.11817930205E+02 -1.11786513598E+02 -9.45455700984E+01  2.43991412404E+02  1.59979593587E+02  7.8117E-13  9.0
 -3000025    2    1    2    0    0 -1.11817930205E+02  1.11786513598E+02  8.74096999154E+01  2.41323833967E+02  1.59991446845E+02  9.1635E-13  9.0
       14    1    3    3    0    0  6.46299052928E+01 -5.06047024508E+01 -1.58659777849E+01  8.36037667774E+01  0.00000000000E+00  0.0000E+00  9.0
      -13    1    3    3    0    0 -2.45781303858E+01 -2.82874352779E+01 -7.21993261940E+00  3.81628364693E+01  1.05700000000E-01  0.0000E+00  9.0
  3000022    1    3    3    0    0  7.17661552981E+01 -3.28943758694E+01 -7.14596596941E+01  1.22224809158E+02  6.00000000000E+01  0.0000E+00  9.0
      -14    1    4    4    0    0  5.92152300992E+00 -1.11812057613E+01 -1.28402464948E+01  1.80265284256E+01  0.00000000000E+00  0.0000E+00  9.0
       13    1    4    4    0    0 -5.65771660046E+01  3.06293316931E+01  6.72778034208E+01  9.30883756368E+01  1.05700000000E-01  0.0000E+00  9.0
  3000022    1    4    4    0    0 -6.11622872105E+01  9.23383876654E+01  3.29721429893E+01  1.30208929904E+02  6.00000000000E+01  0.0000E+00  9.0
</event>
<event>
10    1   3.4312288E-02   4.7850000E+02  -1.0000000E+00   9.3980000E-02
       11   -1    0    0    0    0  0.00000000000E+00  0.00000000000E+00  2.47374925640E+02  2.47374925640E+02  0.00000000000E+00  0.0000E+00  9.0
      -11   -1    0    0    0    0  0.00000000000E+00  0.00000000000E+00 -2.31419035460E+02  2.31419035460E+02  0.00000000000E+00  0.0000E+00  9.0
  3000025    2    1    2    0    0 -1.76081385043E+01  1.47819819840E+02 -8.85381334318E+01  2.36620129123E+02  1.61212092461E+02  1.8438E-12  9.0
 -3000025    2    1    2    0    0  1.76081385043E+01 -1.47819819840E+02  1.04494023613E+02  2.42173831973E+02  1.59901276551E+02  2.1223E-12  9.0
        2    1    3    3  500    0 -2.49144744923E+01  9.14107786705E+01 -7.66346725217E+01  1.21858666240E+02  3.00000000000E-03  0.0000E+00  9.0
       -1    1    3    3    0  500  1.48232359488E+01 -1.09582336631E+01 -1.56169597743E+01  2.41598979013E+01  5.00000000000E-03  0.0000E+00  9.0
  3000022    1    3    3    0    0 -7.51689996049E+00  6.73672748332E+01  3.71349886350E+00  9.06015649825E+01  6.00000000000E+01  0.0000E+00  9.0
      -14    1    4    4    0    0  5.00464980374E+01 -5.11230627537E+01  3.47484984965E+01  7.95341288937E+01  0.00000000000E+00  0.0000E+00  9.0
       13    1    4    4    0    0 -2.35952837988E+01 -5.78672236385E+01  1.50910145063E-01  6.24930951029E+01  1.05700000000E-01  0.0000E+00  9.0
  3000022    1    4    4    0    0 -8.84307573530E+00 -3.88295334484E+01  6.95946149717E+01  1.00146607977E+02  6.00000000000E+01  0.0000E+00  9.0
</event>
<event>
10    1   3.4312288E-02   4.9990000E+02  -1.0000000E+00   9.3490000E-02
       11   -1    0    0    0    0  0.00000000000E+00  0.00000000000E+00  2.49944918450E+02  2.49944918450E+02  0.00000000000E+00  0.0000E+00  9.0
      -11   -1    0    0    0    0  0.00000000000E+00  0.00000000000E+00 -2.49999787190E+02  2.49999787190E+02  0.00000000000E+00  0.0000E+00  9.0
  3000025    2    1    2    0    0  1.71470700804E+01  1.42143260395E+02  1.28029718867E+02  2.49884508837E+02  1.59849711779E+02  2.1059E-12  9.0
 -3000025    2    1    2    0    0 -1.71470700804E+01 -1.42143260395E+02 -1.28084587607E+02  2.50060196796E+02  1.60080329683E+02  1.3183E-12  9.0
       14    1    3    3    0    0  2.49469657877E+01 -6.17817445413E+00  2.12091092658E+01  3.33218735585E+01  0.00000000000E+00  0.0000E+00  9.0
      -13    1    3    3    0    0 -3.80009191034E+01  5.78578749958E+01  6.89268008848E+01  9.76858157791E+01  1.05700000000E-01  0.0000E+00  9.0
  3000022    1    3    3    0    0  3.02010233952E+01  9.04635598530E+01  3.78938087162E+01  1.18876819500E+02  6.00000000000E+01  0.0000E+00  9.0
       -4    1    4    4    0  500  2.79894061675E+00 -2.95574224390E+01  1.13377909869E+01  3.18147186422E+01  1.46817165330E+00  0.0000E+00  9.0
        3    1    4    4  500    0 -3.34734594935E+01 -7.69738562083E+00 -7.06384149861E+01  7.85464697336E+01  2.00000000000E-01  0.0000E+00  9.0
  3000022    1    4    4    0    0  1.35274487966E+01 -1.04888452335E+02 -6.87839636076E+01  1.39699008421E+02  6.00000000000E+01  0.0000E+00  9.0
</event>
<event>
10    1   3.4312288E-02   4.9980000E+02  -1.0000000E+00   9.3490000E-02
       11   -1    0    0    0    0  0.00000000000E+00  0.00000000000E+00  2.49823706180E+02  2.49823706180E+02  0.00000000000E+00  0.0000E+00  9.0
      -11   -1    0    0    0    0  0.00000000000E+00  0.00000000000E+00 -2.50000000000E+02  2.50000000000E+02  0.00000000000E+00  0.0000E+00  9.0
  3000025    2    1    2    0    0 -8.36152514957E+01  1.48948327262E+02  8.77838947614E+01  2.50021806108E+02  1.60086779195E+02  5.8220E-13  9.0
 -3000025    2    1    2    0    0  8.36152514957E+01 -1.48948327262E+02 -8.79601885854E+01  2.49801900068E+02  1.59646108704E+02  2.5068E-12  9.0
        4    1    3    3  500    0 -1.47553122090E+01  3.87814379672E+01 -2.62957688972E+01  4.91461306624E+01  1.46817165330E+00  0.0000E+00  9.0
       -3    1    3    3    0  500 -4.99914027689E+01  8.04438015530E+01  5.44357557105E+01  1.09241187557E+02  2.00000000000E-01  0.0000E+00  9.0
  3000022    1    3    3    0    0 -1.88685365176E+01  2.97230877415E+01  5.96439079481E+01  9.16344878881E+01  6.00000000000E+01  0.0000E+00  9.0
      -14    1    4    4    0    0  2.06527058264E+01 -4.69760288871E+01 -8.14845875374E+01  9.62965189095E+01  0.00000000000E+00  0.0000E+00  9.0
       13    1    4    4    0    0  5.12723258081E+01 -3.19440022938E+01 -1.97656190959E+00  6.04416135273E+01  1.05700000000E-01  0.0000E+00  9.0
  3000022    1    4    4    0    0  1.16902198620E+01 -7.00282960817E+01 -4.49903913849E+00  9.30637676311E+01  6.00000000000E+01  0.0000E+00  9.0
</event>
<event>
10    1   3.4312288E-02   4.4890000E+02  -1.0000000E+00   9.4700000E-02
       11   -1    0    0    0    0  0.00000000000E+00  0.00000000000E+00  2.49999994140E+02  2.49999994140E+02  0.00000000000E+00  0.0000E+00  9.0
      -11   -1    0    0    0    0  0.00000000000E+00  0.00000000000E+00 -2.01517330180E+02  2.01517330180E+02  0.00000000000E+00  0.0000E+00  9.0
  3000025    2    1    2    0    0  9.57154054004E+01  1.97453214337E+01  1.48306255667E+02  2.39049709250E+02  1.59995942051E+02  6.4434E-12  9.0
 -3000025    2    1    2    0    0 -9.57154054004E+01 -1.97453214337E+01 -9.98235917021E+01  2.12467615073E+02  1.60082545723E+02  7.4688E-13  9.0
        2    1    3    3  500    0  4.66133281043E+01  6.36616101768E+00 -3.35431739926E+00  4.71654727240E+01  3.00000000000E-03  0.0000E+00  9.0
       -1    1    3    3    0  500  5.29009698964E-01 -2.64493449220E+01  6.01494430094E+01  6.57099932842E+01  5.00000000000E-03  0.0000E+00  9.0
  3000022    1    3    3    0    0  4.85730675971E+01  3.98285053385E+01  9.15111300569E+01  1.26174243242E+02  6.00000000000E+01  0.0000E+00  9.0
       -2    1    4    4    0  504 -7.76830729911E+01 -7.54873140658E+00 -1.31965843804E+01  7.91567623359E+01  3.00000000000E-03  0.0000E+00  9.0
        1    1    4    4  504    0 -1.37230142233E+01 -1.02474455931E+01 -6.82728812564E+01  7.03883342651E+01  5.00000000000E-03  0.0000E+00  9.0
  3000022    1    4    4    0    0 -4.30931818593E+00 -1.94914443397E+00 -1.83541260653E+01  6.29225184721E+01  6.00000000000E+01  0.0000E+00  9.0
</event>
<event>
10    1   3.4312288E-02   4.9520000E+02  -1.0000000E+00   9.3600000E-02
       11   -1    0    0    0    0  0.00000000000E+00  0.00000000000E+00  2.50000000000E+02  2.50000000000E+02  0.00000000000E+00  0.0000E+00  9.0
      -11   -1    0    0    0    0  0.00000000000E+00  0.00000000000E+00 -2.45254661310E+02  2.45254661310E+02  0.00000000000E+00  0.0000E+00  9.0
  3000025    2    1    2    0    0 -1.56240966706E+02  6.50156080889E+01 -8.17658315495E+01  2.46793945841E+02  1.59947902526E+02  4.6727E-13  9.0
 -3000025    2    1    2    0    0  1.56240966706E+02 -6.50156080889E+01  8.65111702375E+01  2.48460715466E+02  1.60032107971E+02  1.5199E-12  9.0
       14    1    3    3    0    0 -5.94910599601E+01  4.53865777028E+01 -5.46576849929E+01  9.26638558421E+01  0.00000000000E+00  0.0000E+00  9.0
      -13    1    3    3    0    0 -1.23809767824E+01  2.78240922337E+01  2.36294206038E+01  3.85464574932E+01  1.05700000000E-01  0.0000E+00  9.0
  3000022    1    3    3    0    0 -8.43689299635E+01 -8.19506184763E+00 -5.07375671604E+01  1.15583632506E+02  6.00000000000E+01  0.0000E+00  9.0
       -4    1    4    4    0  500  4.57197539997E+01  1.94490372823E+00 -2.49181552039E+00  4.58524070131E+01  1.46817165330E+00  0.0000E+00  9.0
        3    1    4    4  500    0  3.91892098516E+01 -7.75907356753E+01  5.47735496570E+01  1.02743847375E+02  2.00000000000E-01  0.0000E+00  9.0
  3000022    1    4    4    0    0  7.13320028559E+01  1.06302238580E+01  3.42294361016E+01  9.98644610787E+01  6.00000000000E+01  0.0000E+00  9.0
</event>
<event>
10    1   3.4312288E-02   4.6300000E+02  -1.0000000E+00   9.4350000E-02
       11   -1    0    0    0    0  0.00000000000E+00  0.00000000000E+00  2.37198839000E+02  2.37198839000E+02  0.00000000000E+00  0.0000E+00  9.0
      -11   -1    0    0    0    0  0.00000000000E+00  0.00000000000E+00 -2.25960372200E+02  2.25960372200E+02  0.00000000000E+00  0.0000E+00  9.0
  3000025    2    1    2    0    0  1.04230758907E+02 -1.05810859825E+02 -7.17752317865E+01  2.29561633705E+02  1.59646079226E+02  2.5654E-12  9.0
 -3000025    2    1    2    0    0 -1.04230758907E+02  1.05810859825E+02  8.30136985835E+01  2.33597577492E+02  1.60051756936E+02  2.9044E-12  9.0
        4    1    3    3  500    0  1.56615778263E+01 -3.85146189345E+01 -3.30009074337E+01  5.31025075786E+01  1.46817165330E+00  0.0000E+00  9.0
       -3    1    3    3    0  500  5.51229842988E+01  1.07042692518E+00  2.49019256961E+01  6.04965711027E+01  2.00000000000E-01  0.0000E+00  9.0
  3000022    1    3    3    0    0  3.34461967821E+01 -6.83666678157E+01 -6.36762500489E+01  1.15962555024E+02  6.00000000000E+01  0.0000E+00  9.0
       -2    1    4    4    0  504 -6.20630082830E+01  7.19303021166E+01  3.41676145005E+01  1.00961434466E+02  3.00000000000E-03  0.0000E+00  9.0
        1    1    4    4  504    0 -2.92096280852E+01 -1.86886507041E+01 -5.68865384079E+00  3.51401315526E+01  5.00000000000E-03  0.0000E+00  9.0
  3000022    1    4    4    0    0 -1.29581225387E+01  5.25692084123E+01  5.45347379238E+01  9.74960114735E+01  6.00000000000E+01  0.0000E+00  9.0
</event>
<event>
10    1   3.4312288E-02   4.9310000E+02  -1.0000000E+00   9.3640000E-02
       11   -1    0    0    0    0  0.00000000000E+00  0.00000000000E+00  2.43190413270E+02  2.43190413270E+02  0.00000000000E+00  0.0000E+00  9.0
      -11   -1    0    0    0    0  0.00000000000E+00  0.00000000000E+00 -2.49999998450E+02  2.49999998450E+02  0.00000000000E+00  0.0000E+00  9.0
  3000025    2    1    2    0    0  1.56093380949E+02  1.06257428401E+02  2.63319139021E+00  2.45436973869E+02  1.56769224591E+02  1.9373E-12  9.0
 -3000025    2    1    2    0    0 -1.56093380949E+02 -1.06257428401E+02 -9.44277656971E+00  2.47753437865E+02  1.60115006411E+02  6.5965E-13  9.0
       14    1    3    3    0    0  6.45117972152E+01  1.43542390209E+01 -4.09262718686E+01  7.77352937015E+01  0.00000000000E+00  0.0000E+00  9.0
      -13    1    3    3    0    0  6.70088690151E+01  3.96355267807E+01  2.94309046719E+01  8.32307204833E+01  1.05700000000E-01  0.0000E+00  9.0
  3000022    1    3    3    0    0  2.45727147187E+01  5.22676625998E+01  1.41285585879E+01  8.44709596848E+01  6.00000000000E+01  0.0000E+00  9.0
       -2    1    4    4    0  500 -6.79562027651E+01 -4.16174554042E+01  2.02734959367E+01  8.22257425328E+01  3.00000000000E-03  0.0000E+00  9.0
        1    1    4    4  500    0  1.49141626107E+01 -3.61841239578E+01 -1.55679506422E+01  4.21198787412E+01  5.00000000000E-03  0.0000E+00  9.0
  3000022    1    4    4    0    0 -1.03051340795E+02 -2.84558490390E+01 -1.41483218638E+01  1.23407816591E+02  6.00000000000E+01  0.0000E+00  9.0
</event>
<event>
10    1   3.4312288E-02   4.9900000E+02  -1.0000000E+00   9.3510000E-02
       11   -1    0    0    0    0  0.00000000000E+00  0.00000000000E+00  2.49509854420E+02  2.49509854420E+02  0.00000000000E+00  0.0000E+00  9.0
      -11   -1    0    0    0    0  0.00000000000E+00  0.00000000000E+00 -2.49513643430E+02  2.49513643430E+02  0.00000000000E+00  0.0000E+00  9.0
  3000025    2    1    2    0    0 -1.71998221478E+02 -8.41217962569E+01 -9.49672747374E-02  2.49525278395E+02  1.60009345796E+02  9.7824E-14  9.0
 -3000025    2    1    2    0    0  1.71998221478E+02  8.41217962569E+01  9.11782680604E-02  2.49498219464E+02  1.59967147894E+02  3.3331E-13  9.0
        4    1    3    3  500    0  4.50493846470E+00 -3.07295298226E+01  2.90811337573E+00  3.12283705162E+01  1.46817165330E+00  0.0000E+00  9.0
       -3    1    3    3    0  500 -7.22098760262E+01  1.79645113599E+01  1.87241215849E+01  7.67308451227E+01  2.00000000000E-01  0.0000E+00  9.0
  3000022    1    3    3    0    0 -1.04293283916E+02 -7.13567777941E+01 -2.17272022346E+01  1.41566062756E+02  6.00000000000E+01  0.0000E+00  9.0
       -2    1    4    4    0  504 -1.43467536799E+01  2.64910786958E+00 -1.88307449627E+01  2.38210847466E+01  3.00000000000E-03  0.0000E+00  9.0
        1    1    4    4  504    0  5.66734756827E+01  5.43365754638E+01  1.64708961921E+01  8.02224203416E+01  5.00000000000E-03  0.0000E+00  9.0
  3000022    1    4    4    0    0  1.29671499475E+02  2.71361129246E+01  2.45102703914E+00  1.45454714376E+02  6.00000000000E+01  0.0000E+00  9.0
</event>
<event>
10    1   3.4312288E-02   4.9660000E+02  -1.0000000E+00   9.3570000E-02
       11   -1    0    0    0    0  0.00000000000E+00  0.00000000000E+00  2.46653657060E+02  2.46653657060E+02  0.00000000000E+00  0.0000E+00  9.0
      -11   -1    0    0    0    0  0.00000000000E+00  0.00000000000E+00 -2.50000000000E+02  2.50000000000E+02  0.00000000000E+00  0.0000E+00  9.0
  3000025    2    1    2    0    0 -1.35240077744E+02 -1.26980189818E+02 -4.23177082169E+01  2.48605099360E+02  1.59999561764E+02  1.9916E-13  9.0
 -3000025    2    1    2    0    0  1.35240077744E+02  1.26980189818E+02  3.89713652749E+01  2.48048557701E+02  1.59985850724E+02  1.5187E-13  9.0
        4    1    3    3  500    0 -4.87509327635E+01 -6.45089693077E+01  3.68415084355E+01  8.88679516939E+01  1.46817165330E+00  0.0000E+00  9.0
       -3    1    3    3    0  500 -4.68896936164E+01 -4.33349298570E+01 -2.98117648110E+01  7.04651746205E+01  2.00000000000E-01  0.0000E+00  9.0
  3000022    1    3    3    0    0 -3.95994513640E+01 -1.91362906537E+01 -4.93474518404E+01  8.92719730456E+01  6.00000000000E+01  0.0000E+00  9.0
       -4    1    4    4    0  504  9.19011670121E+01  5.67392625578E+00  5.47340953434E+00  9.22503749439E+01  1.46817165330E+00  0.0000E+00  9.0
        3    1    4    4  504    0 -6.51524182957E+00  2.62278299041E+01  1.64465008414E+01  3.16366058152E+01  2.00000000000E-01  0.0000E+00  9.0
  3000022    1    4    4    0    0  4.98541525611E+01  9.50784336588E+01  1.70514548990E+01  1.24161576942E+02  6.00000000000E+01  0.0000E+00  9.0
</event>
<event>
10    1   3.4312288E-02   4.9780000E+02  -1.0000000E+00   9.3540000E-02
       11   -1    0    0    0    0  0.00000000000E+00  0.00000000000E+00  2.49949726570E+02  2.49949726570E+02  0.00000000000E+00  0.0000E+00  9.0
      -11   -1    0    0    0    0  0.00000000000E+00  0.00000000000E+00 -2.47902128190E+02  2.47902128190E+02  0.00000000000E+00  0.0000E+00  9.0
  3000025    2    1    2    0    0  7.41559153373E+01  1.59112469747E+02 -7.35074008446E+01  2.48616412635E+02  1.59971575112E+02  1.6880E-12  9.0
 -3000025    2    1    2    0    0 -7.41559153373E+01 -1.59112469747E+02  7.55549992226E+01  2.49235442113E+02  1.59980842257E+02  3.9204E-12  9.0
        2    1    3    3  500    0 -2.99882927395E+01  8.39679499102E+01 -2.28874784980E+01  9.20529792813E+01  3.00000000000E-03  0.0000E+00  9.0
       -1    1    3    3    0  500  3.49411221403E+01  1.23080856230E+01 -1.41329728840E+01  3.96498667799E+01  5.00000000000E-03  0.0000E+00  9.0
  3000022    1    3    3    0    0  6.92030859366E+01  6.28364342138E+01 -3.64869494627E+01  1.16913566574E+02  6.00000000000E+01  0.0000E+00  9.0
       -4    1    4    4    0  504 -7.27198484078E+01 -7.24610664827E+01  3.11681322156E+01  1.07295808409E+02  1.46817165330E+00  0.0000E+00  9.0
        3    1    4    4  504    0  1.09360201746E+01 -5.95094940812E+01  4.42046871587E+01  7.49337760283E+01  2.00000000000E-01  0.0000E+00  9.0
  3000022    1    4    4    0    0 -1.23720871042E+01 -2.71419091833E+01  1.82179848722E-01  6.70058576762E+01  6.00000000000E+01  0.0000E+00  9.0
</event>
<event>
10    1   3.4312288E-02   4.6940000E+02  -1.0000000E+00   9.4190000E-02
       11   -1    0    0    0    0  0.00000000000E+00  0.00000000000E+00  2.29631967220E+02  2.29631967220E+02  0.00000000000E+00  0.0000E+00  9.0
      -11   -1    0    0    0    0  0.00000000000E+00  0.00000000000E+00 -2.39893617700E+02  2.39893617700E+02  0.00000000000E+00  0.0000E+00  9.0
  3000025    2    1    2    0    0  1.61015033833E+02  4.83451241147E+01  2.91389715678E+01  2.33893568724E+02  1.59981341664E+02  5.5291E-12  9.0
 -3000025    2    1    2    0    0 -1.61015033833E+02 -4.83451241147E+01 -3.94006220518E+01  2.35632016196E+02  1.60333857599E+02  8.2419E-13  9.0
        4    1    3    3  500    0  1.02328589315E+02  3.91563809694E+01  1.30023358761E+01  1.10343004437E+02  1.46817165330E+00  0.0000E+00  9.0
       -3    1    3    3    0  500  2.10597316709E+01 -3.14872432996E+01 -7.30881092415E+00  3.85800143310E+01  2.00000000000E-01  0.0000E+00  9.0
  3000022    1    3    3    0    0  3.76267128464E+01  4.06759864448E+01  2.34454466157E+01  8.49705499564E+01  6.00000000000E+01  0.0000E+00  9.0
       -4    1    4    4    0  504 -2.63515283380E+01  6.74085051210E+00  2.06840747989E+01  3.42027570478E+01  1.46817165330E+00  0.0000E+00  9.0
        3    1    4    4  504    0 -6.75599468907E+01 -2.50995684720E+00  1.94030221241E+01  7.03360759127E+01  2.00000000000E-01  0.0000E+00  9.0
  3000022    1    4    4    0    0 -6.71035586038E+01 -5.25760177796E+01 -7.94877189749E+01  1.31093183235E+02  6.00000000000E+01  0.0000E+00  9.0
</event>
<event>
10    1   3.4312288E-02   4.9370000E+02  -1.0000000E+00   9.3630000E-02
       11   -1    0    0    0    0  0.00000000000E+00  0.00000000000E+00  2.43739091480E+02  2.43739091480E+02  0.00000000000E+00  0.0000E+00  9.0
      -11   -1    0    0    0    0  0.00000000000E+00  0.00000000000E+00 -2.49974005230E+02  2.49974005230E+02  0.00000000000E+00  0.0000E+00  9.0
  3000025    2    1    2    0    0 -1.32616349784E+02  8.35992374087E+01 -1.06939593909E+02  2.48191730228E+02  1.59959774576E+02  1.0290E-12  9.0
 -3000025    2    1    2    0    0  1.32616349784E+02 -8.35992374087E+01  1.00704680149E+02  2.45521366481E+02  1.59885521762E+02  3.5220E-13  9.0
        4    1    3    3  500    0 -4.10169321226E+01  1.29320967186E+01  1.73410974478E+01  4.63950108846E+01  1.46817165330E+00  0.0000E+00  9.0
       -3    1    3    3    0  500 -6.12982055479E+01  6.80515883285E+01 -6.76395365106E+01  1.13857962290E+02  2.00000000000E-01  0.0000E+00  9.0
  3000022    1    3    3    0    0 -3.03012121136E+01  2.61555236180E+00 -5.66411548466E+01  8.79387570532E+01  6.00000000000E+01  0.0000E+00  9.0
       -4    1    4    4    0  504  3.99871008909E+01 -3.12720113494E+01 -2.75149054476E+00  5.08589535846E+01  1.46817165330E+00  0.0000E+00  9.0
        3    1    4    4  504    0  4.22919853010E+01  2.05876015545E+01  6.64998002356E+01  8.14538199831E+01  2.00000000000E-01  0.0000E+00  9.0
  3000022    1    4    4    0    0  5.03372635923E+01 -7.29148276138E+01  3.69563704583E+01  1.13208592913E+02  6.00000000000E+01  0.0000E+00  9.0
</event>
<event>
10    1   3.4312288E-02   4.9700000E+02  -1.0000000E+00   9.3560000E-02
       11   -1    0    0    0    0  0.00000000000E+00  0.00000000000E+00  2.50000000000E+02  2.50000000000E+02  0.00000000000E+00  0.0000E+00  9.0
      -11   -1    0    0    0    0  0.00000000000E+00  0.00000000000E+00 -2.47053124640E+02  2.47053124640E+02  0.00000000000E+00  0.0000E+00  9.0
  3000025    2    1    2    0    0 -1.23894252237E+02  1.05487923739E+02  9.98811067861E+01  2.49128063884E+02  1.60034586668E+02  7.7219E-13  9.0
 -3000025    2    1    2    0    0  1.23894252237E+02 -1.05487923739E+02 -9.69342314251E+01  2.47925060753E+02  1.59978444595E+02  9.6725E-14  9.0
       14    1    3    3    0    0 -3.76916674667E+01 -1.62442626949E+01  3.16956400401E+01  5.18570290749E+01  0.00000000000E+00  0.0000E+00  9.0
      -13    1    3    3    0    0 -6.01930774103E+01  2.47342474100E+01  7.56844219602E+00  6.55155100173E+01  1.05700000000E-01  0.0000E+00  9.0
  3000022    1    3    3    0    0 -2.60095073594E+01  9.69979390235E+01  6.06170245503E+01  1.31755524792E+02  6.00000000000E+01  0.0000E+00  9.0
       -4    1    4    4    0  500  1.26475506303E+01 -5.91561167712E+00  1.48851486735E+01  2.04616269514E+01  1.46817165330E+00  0.0000E+00  9.0
        3    1    4    4  500    0  2.55043899085E+01 -1.17230994825E+01 -8.32744248388E+01  8.78781815829E+01  2.00000000000E-01  0.0000E+00  9.0
  3000022    1    4    4    0    0  8.57423116984E+01 -8.78492125784E+01 -2.85449552598E+01  1.39585252218E+02  6.00000000000E+01  0.0000E+00  9.0
</event>
<event>
10    1   3.4312288E-02   4.8160000E+02  -1.0000000E+00   9.3910000E-02
       11   -1    0    0    0    0  0.00000000000E+00  0.00000000000E+00  2.49999992410E+02  2.49999992410E+02  0.00000000000E+00  0.0000E+00  9.0
      -11   -1    0    0    0    0  0.00000000000E+00  0.00000000000E+00 -2.31967991930E+02  2.31967991930E+02  0.00000000000E+00  0.0000E+00  9.0
  3000025    2    1    2    0    0  1.11536961652E+02  1.38884286579E+02  3.55181593953E+01  2.41917029356E+02  1.59790395746E+02  3.4797E-13  9.0
 -3000025    2    1    2    0    0 -1.11536961652E+02 -1.38884286579E+02 -1.74861589193E+01  2.40050954980E+02  1.59966735167E+02  5.3764E-13  9.0
       14    1    3    3    0    0  8.44802470384E+01  5.17501843367E+01  2.96337068712E+01  1.03407689760E+02  0.00000000000E+00  0.0000E+00  9.0
      -13    1    3    3    0    0  4.94816759031E+00  8.73818850908E+00 -2.96334589599E+01  3.12888696399E+01  1.05700000000E-01  0.0000E+00  9.0
  3000022    1    3    3    0    0  2.21085470231E+01  7.83959137343E+01  3.55179114830E+01  1.07220469957E+02  6.00000000000E+01  0.0000E+00  9.0
      -14    1    4    4    0    0 -5.06132587271E+01 -4.27709119584E+00  1.33305956391E+01  5.25138100709E+01  0.00000000000E+00  0.0000E+00  9.0
       13    1    4    4    0    0 -2.93836985204E+01 -9.52797601161E+01  8.10510834143E+00  1.00036685172E+02  1.05700000000E-01  0.0000E+00  9.0
  3000022    1    4    4    0    0 -3.15400044042E+01 -3.93274352673E+01 -3.89218629008E+01  8.75004597370E+01  6.00000000000E+01  0.0000E+00  9.0
</event>
<event>
10    1   3.4312288E-02   4.8630000E+02  -1.0000000E+00   9.3800000E-02
       11   -1    0    0    0    0  0.00000000000E+00  0.00000000000E+00  2.36503579030E+02  2.36503579030E+02  0.00000000000E+00  0.0000E+00  9.0
      -11   -1    0    0    0    0  0.00000000000E+00  0.00000000000E+00 -2.49993737830E+02  2.49993737830E+02  0.00000000000E+00  0.0000E+00  9.0
  3000025    2    1    2    0    0  1.53304296602E+02 -9.81219065095E+01 -2.57140275417E+01  2.43776308224E+02  1.60111090637E+02  4.4947E-13  9.0
 -3000025    2    1    2    0    0 -1.53304296602E+02  9.81219065095E+01  1.22238687377E+01  2.42721008635E+02  1.60106056013E+02  1.1195E-12  9.0
        4    1    3    3  500    0 -1.27050537954E+01 -2.27715497447E+00 -4.60213559395E-01  1.29988903852E+01  1.46817165330E+00  0.0000E+00  9.0
       -3    1    3    3    0  500  1.21158427026E+02 -9.54371953906E+01 -1.19628298011E+01  1.54695740085E+02  2.00000000000E-01  0.0000E+00  9.0
  3000022    1    3    3    0    0  4.48509233714E+01 -4.07556144209E-01 -1.32909841812E+01  7.60816777535E+01  6.00000000000E+01  0.0000E+00  9.0
       -4    1    4    4    0  504 -7.91607914451E+01  5.62640058781E+01  3.53211055441E+01  1.03352819432E+02  1.46817165330E+00  0.0000E+00  9.0
        3    1    4    4  504    0 -9.05383253330E+00  4.06355057203E+01 -2.88445758580E+01  5.06484527415E+01  2.00000000000E-01  0.0000E+00  9.0
  3000022    1    4    4    0    0 -6.50896726243E+01  1.22239491118E+00  5.74733905154E+00  8.87197364617E+01  6.00000000000E+01  0.0000E+00  9.0
</event>
<event>
10    1   3.4312288E-02   4.9700000E+02  -1.0000000E+00   9.3560000E-02
       11   -1    0    0    0    0  0.00000000000E+00  0.00000000000E+00  2.47376913930E+02  2.47376913930E+02  0.00000000000E+00  0.0000E+00  9.0
      -11   -1    0    0    0    0  0.00000000000E+00  0.00000000000E+00 -2.49660119630E+02  2.49660119630E+02  0.00000000000E+00  0.0000E+00  9.0
  3000025    2    1    2    0    0  1.76470060514E+02  6.34662678846E+01  2.94121082306E+01  2.48326686655E+02  1.60098162942E+02  3.6062E-13  9.0
 -3000025    2    1    2    0    0 -1.76470060514E+02 -6.34662678846E+01 -3.16953139316E+01  2.48710346896E+02  1.60257899370E+02  6.6670E-14  9.0
        4    1    3    3  500    0  4.41756068234E+01 -3.35512120893E+01  1.54625508835E+01  5.76056774867E+01  1.46817165330E+00  0.0000E+00  9.0
       -3    1    3    3    0  500  8.85208920982E+01  4.49231735377E+01  1.19040235337E+01  9.99789259537E+01  2.00000000000E-01  0.0000E+00  9.0
  3000022    1    3    3    0    0  4.37735615926E+01  5.20943064361E+01  2.04553381337E+00  9.07420832147E+01  6.00000000000E+01  0.0000E+00  9.0
       -2    1    4    4    0  504 -4.89715698301E+00 -3.69465161340E+01 -3.64624301761E+01  5.21395821263E+01  3.00000000000E-03  0.0000E+00  9.0
        1    1    4    4  504    0 -4.27119212118E+01 -3.03808863137E+01  1.34361761110E+01  5.41094938092E+01  5.00000000000E-03  0.0000E+00  9.0
  3000022    1    4    4    0    0 -1.28860982321E+02  3.86113456298E+00 -8.66905986649E+00  1.42461270961E+02  6.00000000000E+01  0.0000E+00  9.0
</event>
<event>
10    1   3.4312288E-02   4.7020000E+02  -1.0000000E+00   9.4180000E-02
       11   -1    0    0    0    0  0.00000000000E+00  0.00000000000E+00  2.50000000000E+02  2.50000000000E+02  0.00000000000E+00  0.0000E+00  9.0
      -11   -1    0    0    0    0  0.00000000000E+00  0.00000000000E+00 -2.21043909070E+02  2.21043909070E+02  0.00000000000E+00  0.0000E+00  9.0
  3000025    2    1    2    0    0  2.74671365683E+01  1.61246304892E+02  6.30401804336E+01  2.37391490372E+02  1.60080732505E+02  3.7954E-13  9.0
 -3000025    2    1    2    0    0 -2.74671365683E+01 -1.61246304892E+02 -3.40840895006E+01  2.33652418697E+02  1.63330686564E+02  3.5784E-12  9.0
        2    1    3    3  500    0 -2.57479359425E+01  3.91508267846E+01  3.45029500688E+01  5.81910389637E+01  3.00000000000E-03  0.0000E+00  9.0
       -1    1    3    3    0  500  5.74610828892E+01  8.03293774481E+01  3.70343486852E+01  1.05480462340E+02  5.00000000000E-03  0.0000E+00  9.0
  3000022    1    3    3    0    0 -4.24601037842E+00  4.17661006586E+01 -8.49711832057E+00  7.37199890675E+01  6.00000000000E+01  0.0000E+00  9.0
       -4    1    4    4    0  504 -6.55563647918E+00 -3.70239474722E+01  4.71067376772E+01  6.02905408722E+01  1.46817165330E+00  0.0000E+00  9.0
        3    1    4    4  504    0 -1.66457468832E+01 -6.91214028359E+01 -3.08278163394E+01  7.74935060477E+01  2.00000000000E-01  0.0000E+00  9.0
  3000022    1    4    4    0    0 -4.26575320598E+00 -5.51009545843E+01 -5.03630108394E+01  9.58683717778E+01  6.00000000000E+01  0.0000E+00  9.0
</event>
<event>
10    1   3.4312288E-02   4.7940000E+02  -1.0000000E+00   9.3960000E-02
       11   -1    0    0    0    0  0.00000000000E+00  0.00000000000E+00  2.49999333000E+02  2.49999333000E+02  0.00000000000E+00  0.0000E+00  9.0
      -11   -1    0    0    0    0  0.00000000000E+00  0.00000000000E+00 -2.29827122970E+02  2.29827122970E+02  0.00000000000E+00  0.0000E+00  9.0
  3000025    2    1    2    0    0  1.17076759568E+02 -3.16940992756E+01  1.41569967428E+02  2.45081086546E+02  1.59094939408E+02  1.5936E-13  9.0
 -3000025    2    1    2    0    0 -1.17076759568E+02  3.16940992756E+01 -1.21397757398E+02  2.34745369424E+02  1.60176432115E+02  2.5065E-12  9.0
        2    1    3    3  500    0 -1.95781273729E+01 -2.85002502450E+00  2.21594860400E+01  2.97063721216E+01  3.00000000000E-03  0.0000E+00  9.0
       -1    1    3    3    0  500  8.34300660070E+01 -4.78692587938E+01  7.32148004624E+01  1.20881962605E+02  5.00000000000E-03  0.0000E+00  9.0
  3000022    1    3    3    0    0  5.32248209343E+01  1.90251845426E+01  4.61956809261E+01  9.44927518204E+01  6.00000000000E+01  0.0000E+00  9.0
       -2    1    4    4    0  504  3.39501158704E+00  3.65044887447E+01 -5.42231194363E+01  6.54541862113E+01  3.00000000000E-03  0.0000E+00  9.0
        1    1    4    4  504    0 -2.79918305133E+01 -1.08717357359E+01  1.31256699578E+01  3.27722512232E+01  5.00000000000E-03  0.0000E+00  9.0
  3000022    1    4    4    0    0 -9.24799406412E+01  6.06134626679E+00 -8.03003079183E+01  1.36518931989E+02  6.00000000000E+01  0.0000E+00  9.0
</event>
<event>
10    1   3.4312288E-02   4.8690000E+02  -1.0000000E+00   9.3790000E-02
       11   -1    0    0    0    0  0.00000000000E+00  0.00000000000E+00  2.49992279110E+02  2.49992279110E+02  0.00000000000E+00  0.0000E+00  9.0
      -11   -1    0    0    0    0  0.00000000000E+00  0.00000000000E+00 -2.37046483900E+02  2.37046483900E+02  0.00000000000E+00  0.0000E+00  9.0
  3000025    2    1    2    0    0  1.38268190845E+02  1.44150249164E+01  1.26305301328E+02  2.46694259770E+02  1.59934808960E+02  5.6655E-13  9.0
 -3000025    2    1    2    0    0 -1.38268190845E+02 -1.44150249164E+01 -1.13359506118E+02  2.40344503244E+02  1.59966299793E+02  1.7643E-14  9.0
        2    1    3    3  500    0  5.31544802431E+01 -3.63878344043E+01  1.14367324737E+01  6.54237886493E+01  3.00000000000E-03  0.0000E+00  9.0
       -1    1    3    3    0  500  2.64631345868E+01  4.19521455740E+01  1.78911328445E+01  5.27292392310E+01  5.00000000000E-03  0.0000E+00  9.0
  3000022    1    3    3    0    0  5.86505760147E+01  8.85071374565E+00  9.69774360098E+01  1.28541231890E+02  6.00000000000E+01  0.0000E+00  9.0
       -2    1    4    4    0  504 -8.32804150071E+01  1.23094574975E+01 -5.72960858316E+01  1.01833156331E+02  3.00000000000E-03  0.0000E+00  9.0
        1    1    4    4  504    0  9.72751434628E+00 -6.25085985657E+00 -4.59177308115E+01  4.73511965232E+01  5.00000000000E-03  0.0000E+00  9.0
  3000022    1    4    4    0    0 -6.47152901835E+01 -2.04736225570E+01 -1.01456894748E+01  9.11601503896E+01  6.00000000000E+01  0.0000E+00  9.0
</event>
<event>
10    1   3.4312288E-02   4.8800000E+02  -1.0000000E+00   9.3760000E-02
       11   -1    0    0    0    0  0.00000000000E+00  0.00000000000E+00  2.49999255670E+02  2.49999255670E+02  0.00000000000E+00  0.0000E+00  9.0
      -11   -1    0    0    0    0  0.00000000000E+00  0.00000000000E+00 -2.38140711020E+02  2.38140711020E+02  0.00000000000E+00  0.0000E+00  9.0
  3000025    2    1    2    0    0 -1.58510517502E+02 -7.00691635116E+01  6.84463466964E+01  2.45518411665E+02  1.59872187250E+02  1.4493E-12  9.0
 -3000025    2    1    2    0    0  1.58510517502E+02  7.00691635116E+01 -5.65878020434E+01  2.42621555024E+02  1.60086750820E+02  6.1321E-13  9.0
       14    1    3    3    0    0 -1.10544623286E+02 -2.32666419152E+01  3.06489126759E+01  1.17050443023E+02  0.00000000000E+00  0.0000E+00  9.0
      -13    1    3    3    0    0 -3.33520636022E+00 -1.32267377875E+01 -2.27732556138E+01  2.65462339646E+01  1.05700000000E-01  0.0000E+00  9.0
  3000022    1    3    3    0    0 -4.46306878544E+01 -3.35757838088E+01  6.05706896347E+01  1.01921734677E+02  6.00000000000E+01  0.0000E+00  9.0
       -4    1    4    4    0  500  9.28965435077E+01  8.38871819845E+01 -2.63773962213E+01  1.27924781244E+02  1.46817165330E+00  0.0000E+00  9.0
        3    1    4    4  500    0 -1.00367651229E+01 -4.49927529667E+00 -1.14809295550E+01  1.59006879025E+01  2.00000000000E-01  0.0000E+00  9.0
  3000022    1    4    4    0    0  7.56507391179E+01 -9.31874317619E+00 -1.87294762671E+01  9.87960858775E+01  6.00000000000E+01  0.0000E+00  9.0
</event>
<event>
10    1   3.4312288E-02   4.7550000E+02  -1.0000000E+00   9.4050000E-02
       11   -1    0    0    0    0  0.00000000000E+00  0.00000000000E+00  2.49999980660E+02  2.49999980660E+02  0.00000000000E+00  0.0000E+00  9.0
      -11   -1    0    0    0    0  0.00000000000E+00  0.00000000000E+00 -2.26109108600E+02  2.26109108600E+02  0.00000000000E+00  0.0000E+00  9.0
  3000025    2    1    2    0    0  7.43574802060E+01  3.13837922636E+01  1.68385221781E+02  2.45904648627E+02  1.60004799999E+02  4.1337E-13  9.0
 -3000025    2    1    2    0    0 -7.43574802060E+01 -3.13837922636E+01 -1.44494349721E+02  2.30204440631E+02  1.60004656511E+02  2.6529E-13  9.0
        2    1    3    3  500    0  5.92518279059E+00  3.76987134036E+01  1.33635861799E+02  1.38977855615E+02  3.00000000000E-03  0.0000E+00  9.0
       -1    1    3    3    0  500  1.77367495700E+01 -1.25571287606E+01  2.85164518062E+00  2.19181585279E+01  5.00000000000E-03  0.0000E+00  9.0
  3000022    1    3    3    0    0  5.06955478459E+01  6.24220762110E+00  3.18977148012E+01  8.50086344845E+01  6.00000000000E+01  0.0000E+00  9.0
      -14    1    4    4    0    0 -3.62330127005E+01 -1.27596979592E+01  7.12568217944E-01  3.84206826439E+01  0.00000000000E+00  0.0000E+00  9.0
       13    1    4    4    0    0 -9.28079203839E+00 -3.87231509114E+01 -1.03017770346E+02  1.10445858668E+02  1.05700000000E-01  0.0000E+00  9.0
  3000022    1    4    4    0    0 -2.88436754669E+01  2.00990566068E+01 -4.21891475928E+01  8.13378993184E+01  6.00000000000E+01  0.0000E+00  9.0
</event>
<event>
10    1   3.4312288E-02   4.9860000E+02  -1.0000000E+00   9.3520000E-02
       11   -1    0    0    0    0  0.00000000000E+00  0.00000000000E+00  2.49856543480E+02  2.49856543480E+02  0.00000000000E+00  0.0000E+00  9.0
      -11   -1    0    0    0    0  0.00000000000E+00  0.00000000000E+00 -2.48713335290E+02  2.48713335290E+02  0.00000000000E+00  0.0000E+00  9.0
  3000025    2    1    2    0    0 -1.55909639025E+02 -8.55144176308E+00  1.10833217643E+02  2.49640821922E+02  1.60173640589E+02  4.2657E-13  9.0
 -3000025    2    1    2    0    0  1.55909639025E+02  8.55144176308E+00 -1.09690009463E+02  2.48929056851E+02  1.59852539773E+02  3.6792E-13  9.0
        4    1    3    3  500    0 -6.02058705054E+00 -2.48992577808E+01  5.06636115560E+01  5.67906468564E+01  1.46817165330E+00  0.0000E+00  9.0
       -3    1    3    3    0  500 -6.66270406207E+01 -1.49445256134E+01 -2.98871426370E+00  6.83481806680E+01  2.00000000000E-01  0.0000E+00  9.0
  3000022    1    3    3    0    0 -8.32620113529E+01  3.12923416311E+01  6.31583203516E+01  1.24501994397E+02  6.00000000000E+01  0.0000E+00  9.0
       -4    1    4    4    0  504  6.83111138467E+01 -4.29920164469E+01 -4.76331699277E+01  9.37325778932E+01  1.46817165330E+00  0.0000E+00  9.0
        3    1    4    4  504    0  5.75527521009E+01  1.22663938728E+01 -4.85310281995E+01  7.62763684973E+01  2.00000000000E-01  0.0000E+00  9.0
  3000022    1    4    4    0    0  3.00457730771E+01  3.92770643382E+01 -1.35258113358E+01  7.89201104606E+01  6.00000000000E+01  0.0000E+00  9.0
</event>
<event>
10    1   3.4312288E-02   5.0000000E+02  -1.0000000E+00   9.3490000E-02
       11   -1    0    0    0    0  0.00000000000E+00  0.00000000000E+00  2.50000000000E+02  2.50000000000E+02  0.00000000000E+00  0.0000E+00  9.0
      -11   -1    0    0    0    0  0.00000000000E+00  0.00000000000E+00 -2.49999999760E+02  2.49999999760E+02  0.00000000000E+00  0.0000E+00  9.0
  3000025    2    1    2    0    0  1.87642497584E+02  3.79186073957E+01 -1.75581123833E+01  2.50117652462E+02  1.60009453084E+02  3.5716E-12  9.0
 -3000025    2    1    2    0    0 -1.87642497584E+02 -3.79186073957E+01  1.75581126193E+01  2.49882347302E+02  1.59641387140E+02  5.1431E-13  9.0
       14    1    3    3    0    0  6.53703966038E+01 -2.30527822253E+01 -9.20908029112E+00  6.99251505559E+01  0.00000000000E+00  0.0000E+00  9.0
      -13    1    3    3    0    0  3.00006797027E+01 -1.33083533339E+01  2.73183278551E+01  4.27019350893E+01  1.05700000000E-01  0.0000E+00  9.0
  3000022    1    3    3    0    0  9.22714212781E+01  7.42797429550E+01 -3.56673599473E+01  1.37490566817E+02  6.00000000000E+01  0.0000E+00  9.0
      -14    1    4    4    0    0 -2.65197363819E+01 -4.97634496976E+01  3.79908509225E+01  6.79926620849E+01  0.00000000000E+00  0.0000E+00  9.0
       13    1    4    4    0    0 -3.04470383219E+01  1.36119917081E+01 -1.83616322376E+01  3.80718947749E+01  1.05700000000E-01  0.0000E+00  9.0
  3000022    1    4    4    0    0 -1.30675722880E+02 -1.76714940720E+00 -2.07110606558E+00  1.43817790442E+02  6.00000000000E+01  0.0000E+00  9.0
</event>
<event>
10    1   3.4312288E-02   4.9320000E+02  -1.0000000E+00   9.3640000E-02
       11   -1    0    0    0    0  0.00000000000E+00  0.00000000000E+00  2.48894576420E+02  2.48894576420E+02  0.00000000000E+00  0.0000E+00  9.0
      -11   -1    0    0    0    0  0.00000000000E+00  0.00000000000E+00 -2.44299368020E+02  2.44299368020E+02  0.00000000000E+00  0.0000E+00  9.0
  3000025    2    1    2    0    0  1.02323530906E+02  1.55815636450E+02  2.22516696781E+01  2.46754492152E+02  1.60137519197E+02  8.3497E-13  9.0
 -3000025    2    1    2    0    0 -1.02323530906E+02 -1.55815636450E+02 -1.76564612871E+01  2.46439452286E+02  1.60224952734E+02  2.1400E-14  9.0
       14    1    3    3    0    0  7.02495134970E+01  3.95954010661E+01  3.46480123213E+01  8.77683011683E+01  0.00000000000E+00  0.0000E+00  9.0
      -13    1    3    3    0    0  2.88985734786E+01  5.66224443439E+01 -3.33707774129E+01  7.17972750890E+01  1.05700000000E-01  0.0000E+00  9.0
  3000022    1    3    3    0    0  3.17544393026E+00  5.95977910404E+01  2.09744347698E+01  8.71889158951E+01  6.00000000000E+01  0.0000E+00  9.0
       -4    1    4    4    0  500  2.45491871260E+01 -1.04320601424E+01  3.07302932590E+00  2.68903236240E+01  1.46817165330E+00  0.0000E+00  9.0
        3    1    4    4  500    0 -5.33399051340E+01 -7.28044968698E+01 -3.96574666940E+01  9.85819197863E+01  2.00000000000E-01  0.0000E+00  9.0
  3000022    1    4    4    0    0 -7.35328128979E+01 -7.25790794375E+01  1.89279760806E+01  1.20967208876E+02  6.00000000000E+01  0.0000E+00  9.0
</event>
<event>
10    1   3.4312288E-02   4.8510000E+02  -1.0000000E+00   9.3830000E-02
       11   -1    0    0    0    0  0.00000000000E+00  0.00000000000E+00  2.36057843970E+02  2.36057843970E+02  0.00000000000E+00  0.0000E+00  9.0
      -11   -1    0    0    0    0  0.00000000000E+00  0.00000000000E+00 -2.49246500530E+02  2.49246500530E+02  0.00000000000E+00  0.0000E+00  9.0
  3000025    2    1    2    0    0 -2.81468892401E+01 -1.51688631979E+02  9.05465968796E+01  2.40018429852E+02  1.60026472861E+02  2.1604E-12  9.0
 -3000025    2    1    2    0    0  2.81468892401E+01  1.51688631979E+02 -1.03735253443E+02  2.45285914642E+02  1.60007776903E+02  1.9370E-12  9.0
        4    1    3    3  500    0  9.98640525631E+00 -1.03094751307E+02  5.80053826562E+01  1.18722516745E+02  1.46817165330E+00  0.0000E+00  9.0
       -3    1    3    3    0  500  8.84279616503E+00  1.39775793371E+01 -2.34458514733E+00  1.67064313261E+01  2.00000000000E-01  0.0000E+00  9.0
  3000022    1    3    3    0    0 -4.69760906615E+01 -6.25714600087E+01  3.48857993706E+01  1.04589481781E+02  6.00000000000E+01  0.0000E+00  9.0
      -14    1    4    4    0    0 -2.08713665599E+01  7.16005549911E+01  4.98949924047E+00  7.47472308503E+01  0.00000000000E+00  0.0000E+00  9.0
       13    1    4    4    0    0 -8.51161594107E+00  1.94038492835E+01 -5.05986125051E-01  2.11949089971E+01  1.05700000000E-01  0.0000E+00  9.0
  3000022    1    4    4    0    0  5.75298717411E+01  6.06842277036E+01 -1.08218766558E+02  1.49343774794E+02  6.00000000000E+01  0.0000E+00  9.0
</event>
<event>
10    1   3.4312288E-02   4.9550000E+02  -1.0000000E+00   9.3590000E-02
       11   -1    0    0    0    0  0.00000000000E+00  0.00000000000E+00  2.49400866370E+02  2.49400866370E+02  0.00000000000E+00  0.0000E+00  9.0
      -11   -1    0    0    0    0  0.00000000000E+00  0.00000000000E+00 -2.46101853800E+02  2.46101853800E+02  0.00000000000E+00  0.0000E+00  9.0
  3000025    2    1    2    0    0 -1.47649213602E+01 -1.87255526678E+02  3.12388229896E+01  2.48694007369E+02  1.59969403529E+02  2.4416E-12  9.0
 -3000025    2    1    2    0    0  1.47649213602E+01  1.87255526678E+02 -2.79398104146E+01  2.46808712805E+02  1.57642863893E+02  2.4333E-12  9.0
        2    1    3    3  500    0 -2.28018765013E+01  5.50233970545E+00  3.04073522405E+01  3.84032341541E+01  3.00000000000E-03  0.0000E+00  9.0
       -1    1    3    3    0  500 -6.95863054421E+00 -4.91605685867E+01 -1.79976511730E+01  5.28119258838E+01  5.00000000000E-03  0.0000E+00  9.0
  3000022    1    3    3    0    0  1.49955856853E+01 -1.43597297796E+02  1.88291219221E+01  1.57478847331E+02  6.00000000000E+01  0.0000E+00  9.0
      -14    1    4    4    0    0  5.65899685498E-01  9.39598224121E+01  2.97023637184E+01  9.85444005543E+01  0.00000000000E+00  0.0000E+00  9.0
       13    1    4    4    0    0  8.08804862002E+00 -1.14698245287E+01 -1.37765565464E+01  1.96666745528E+01  1.05700000000E-01  0.0000E+00  9.0
  3000022    1    4    4    0    0  6.11097305478E+00  1.04765528794E+02 -4.38656175865E+01  1.28597637698E+02  6.00000000000E+01  0.0000E+00  9.0
</event>
<event>
10    1   3.4312288E-02   4.5940000E+02  -1.0000000E+00   9.4440000E-02
       11   -1    0    0    0    0  0.00000000000E+00  0.00000000000E+00  2.49951183470E+02  2.49951183470E+02  0.00000000000E+00  0.0000E+00  9.0
      -11   -1    0    0    0    0  0.00000000000E+00  0.00000000000E+00 -2.11101369730E+02  2.11101369730E+02  0.00000000000E+00  0.0000E+00  9.0
  3000025    2    1    2    0    0 -3.43180767896E+01  1.29638916525E+02  1.15674951460E+02  2.38641612746E+02  1.59953574098E+02  3.2175E-12  9.0
 -3000025    2    1    2    0    0  3.43180767896E+01 -1.29638916525E+02 -7.68251377175E+01  2.22410940456E+02  1.59939193374E+02  7.9428E-14  9.0
        2    1    3    3  500    0 -1.56492905489E+01  7.18797101678E+01  7.78172959059E+00  7.39739707796E+01  3.00000000000E-03  0.0000E+00  9.0
       -1    1    3    3    0  500  1.08716302125E+01 -1.85891253301E+01  1.03343577674E+01  2.38861235758E+01  5.00000000000E-03  0.0000E+00  9.0
  3000022    1    3    3    0    0 -2.95404164531E+01  7.63483316872E+01  9.75588641019E+01  1.40781518391E+02  6.00000000000E+01  0.0000E+00  9.0
       -2    1    4    4    0  504  2.01201775717E+01 -5.29786435917E+01  2.59589468030E+01  6.23331785685E+01  3.00000000000E-03  0.0000E+00  9.0
        1    1    4    4  504    0 -1.21863562774E+01 -5.05441174390E+01 -4.78140333107E+01  7.06356630424E+01  5.00000000000E-03  0.0000E+00  9.0
  3000022    1    4    4    0    0  2.63842554954E+01 -2.61161554943E+01 -5.49700512098E+01  8.94420988453E+01  6.00000000000E+01  0.0000E+00  9.0
</event>
<event>
10    1   3.4312288E-02   5.0000000E+02  -1.0000000E+00   9.3490000E-02
       11   -1    0    0    0    0  0.00000000000E+00  0.00000000000E+00  2.49999998160E+02  2.49999998160E+02  0.00000000000E+00  0.0000E+00  9.0
      -11   -1    0    0    0    0  0.00000000000E+00  0.00000000000E+00 -2.49999502740E+02  2.49999502740E+02  0.00000000000E+00  0.0000E+00  9.0
  3000025    2    1    2    0    0  6.78373603625E+01 -8.21522956323E+01  1.59813572964E+02  2.49995840238E+02  1.60020732700E+02  2.2454E-12  9.0
 -3000025    2    1    2    0    0 -6.78373603625E+01  8.21522956323E+01 -1.59813077544E+02  2.50003660661E+02  1.60033444789E+02  9.5226E-13  9.0
        2    1    3    3  500    0  4.03335926768E+01  1.14624741248E+01  2.07827841653E+01  4.67986232484E+01  3.00000000000E-03  0.0000E+00  9.0
       -1    1    3    3    0  500 -2.67750543119E+01 -2.30008954448E+01  6.09111754817E+01  7.03996878419E+01  5.00000000000E-03  0.0000E+00  9.0
  3000022    1    3    3    0    0  5.42788219976E+01 -7.06138743121E+01  7.81196133171E+01  1.32797529147E+02  6.00000000000E+01  0.0000E+00  9.0
       -2    1    4    4    0  504 -4.14433855594E+00  2.77926830996E+01 -8.04011006260E+01  8.51700990184E+01  3.00000000000E-03  0.0000E+00  9.0
        1    1    4    4  504    0  3.47124767557E+00 -7.51606696569E+00  1.71298609973E+01  1.90255876610E+01  5.00000000000E-03  0.0000E+00  9.0
  3000022    1    4    4    0    0 -6.71642694821E+01  6.18756794976E+01 -9.65418379156E+01  1.45807973981E+02  6.00000000000E+01  0.0000E+00  9.0
</event>
<event>
10    1   3.4312288E-02   4.7940000E+02  -1.0000000E+00   9.3960000E-02
       11   -1    0    0    0    0  0.00000000000E+00  0.00000000000E+00  2.49997123840E+02  2.49997123840E+02  0.00000000000E+00  0.0000E+00  9.0
      -11   -1    0    0    0    0  0.00000000000E+00  0.00000000000E+00 -2.29820853180E+02  2.29820853180E+02  0.00000000000E+00  0.0000E+00  9.0
  3000025    2    1    2    0    0 -1.57610816208E+02  7.89420894511E+01 -1.79899141050E+01  2.38737731889E+02  1.59997014801E+02  2.3597E-13  9.0
 -3000025    2    1    2    0    0  1.57610816208E+02 -7.89420894511E+01  3.81661847630E+01  2.41080245130E+02  1.59968759638E+02  1.7293E-13  9.0
        2    1    3    3  500    0 -2.46169068391E+01  4.85659224501E+01  2.72858618121E+01  6.09028668421E+01  3.00000000000E-03  0.0000E+00  9.0
       -1    1    3    3    0  500 -7.01391296223E+01 -1.25135546583E+01 -8.95670227023E-01  7.12522898194E+01  5.00000000000E-03  0.0000E+00  9.0
  3000022    1    3    3    0    0 -6.28547797467E+01  4.28897216589E+01 -4.43801056901E+01  1.06582575227E+02  6.00000000000E+01  0.0000E+00  9.0
       -4    1    4    4    0  504  8.09738646056E+01 -6.67102851694E+01  5.07204923625E+01  1.16540777284E+02  1.46817165330E+00  0.0000E+00  9.0
        3    1    4    4  504    0  2.88559587272E+01  2.33985829441E+01  6.83010398489E+00  3.77736728198E+01  2.00000000000E-01  0.0000E+00  9.0
  3000022    1    4    4    0    0  4.77809928746E+01 -3.56303872254E+01 -1.93844115850E+01  8.67657950255E+01  6.00000000000E+01  0.0000E+00  9.0
</event>
<event>
10    1   3.4312288E-02   4.9360000E+02  -1.0000000E+00   9.3630000E-02
       11   -1    0    0    0    0  0.00000000000E+00  0.00000000000E+00  2.47554611690E+02  2.47554611690E+02  0.00000000000E+00  0.0000E+00  9.0
      -11   -1    0    0    0    0  0.00000000000E+00  0.00000000000E+00 -2.46096696720E+02  2.46096696720E+02  0.00000000000E+00  0.0000E+00  9.0
  3000025    2    1    2    0    0  1.80532591714E+02 -3.76607089088E+01  3.21505599151E+01  2.46214958816E+02  1.59930615504E+02  1.9995E-12  9.0
 -3000025    2    1    2    0    0 -1.80532591714E+02  3.76607089088E+01 -3.06926449461E+01  2.47436349604E+02  1.62087516438E+02  5.1820E-13  9.0
        2    1    3    3  500    0  3.54131315958E+01  2.94569330577E+01  3.06793473720E+01  5.53445856318E+01  3.00000000000E-03  0.0000E+00  9.0
       -1    1    3    3    0  500  9.10781462424E+01 -2.19020200375E+01 -2.01824079934E+01  9.58240931191E+01  5.00000000000E-03  0.0000E+00  9.0
  3000022    1    3    3    0    0  5.40413138754E+01 -4.52156219292E+01  2.16536205361E+01  9.50462800647E+01  6.00000000000E+01  0.0000E+00  9.0
       -2    1    4    4    0  504 -5.54291706991E+01  2.02814368711E+01 -4.49830869935E+01  7.42105637387E+01  3.00000000000E-03  0.0000E+00  9.0
        1    1    4    4  504    0  1.53673515839E+01  4.16627399866E+00 -8.77778985242E+00  1.81813903051E+01  5.00000000000E-03  0.0000E+00  9.0
  3000022    1    4    4    0    0 -1.40470772599E+02  1.32129980391E+01  2.30682318997E+01  1.55044395560E+02  6.00000000000E+01  0.0000E+00  9.0
</event>
<event>
10    1   3.4312288E-02   4.8630000E+02  -1.0000000E+00   9.3800000E-02
       11   -1    0    0    0    0  0.00000000000E+00  0.00000000000E+00  2.50000000000E+02  2.50000000000E+02  0.00000000000E+00  0.0000E+00  9.0
      -11   -1    0    0    0    0  0.00000000000E+00  0.00000000000E+00 -2.36488842580E+02  2.36488842580E+02  0.00000000000E+00  0.0000E+00  9.0
  3000025    2    1    2    0    0  1.41070515078E+02  1.11433137827E+02  4.15979174237E+01  2.44213340945E+02  1.59973543847E+02  8.0456E-13  9.0
 -3000025    2    1    2    0    0 -1.41070515078E+02 -1.11433137827E+02 -2.80867600017E+01  2.42275501632E+02  1.59969741431E+02  4.6640E-13  9.0
       14    1    3    3    0    0  7.88671049336E+01  1.84575932168E+01  3.27036383674E+01  8.73511931826E+01  0.00000000000E+00  0.0000E+00  9.0
      -13    1    3    3    0    0  4.88159794725E+00  8.37643980042E+00 -3.04837403249E+01  3.19885032306E+01  1.05700000000E-01  0.0000E+00  9.0
  3000022    1    3    3    0    0  5.73218121957E+01  8.45991048082E+01  3.93780193811E+01  1.24873644530E+02  6.00000000000E+01  0.0000E+00  9.0
      -14    1    4    4    0    0 -1.04868070906E+02 -7.87735925504E+01 -9.37771107890E+00  1.31493469967E+02  0.00000000000E+00  0.0000E+00  9.0
       13    1    4    4    0    0 -1.94624055022E+01  6.65793958467E+00 -2.98819576641E+01  3.62774854941E+01  1.05700000000E-01  0.0000E+00  9.0
  3000022    1    4    4    0    0 -1.67400386699E+01 -3.93174848603E+01  1.11729087409E+01  7.45045461710E+01  6.00000000000E+01  0.0000E+00  9.0
</event>
<event>
10    1   3.4312288E-02   4.6600000E+02  -1.0000000E+00   9.4280000E-02
       11   -1    0    0    0    0  0.00000000000E+00  0.00000000000E+00  2.17119660390E+02  2.17119660390E+02  0.00000000000E+00  0.0000E+00  9.0
      -11   -1    0    0    0    0  0.00000000000E+00  0.00000000000E+00 -2.49998111250E+02  2.49998111250E+02  0.00000000000E+00  0.0000E+00  9.0
  3000025    2    1    2    0    0  1.38678133878E+02  6.52364998452E+01 -8.88072819825E+01  2.38665676623E+02  1.59959826634E+02  2.4534E-12  9.0
 -3000025    2    1    2    0    0 -1.38678133878E+02 -6.52364998452E+01  5.59288311295E+01  2.28452095018E+02  1.59921542759E+02  3.7520E-12  9.0
        4    1    3    3  500    0  5.07147216970E+01  3.32822503885E+01 -4.86019338810E+01  7.77431327688E+01  1.46817165330E+00  0.0000E+00  9.0
       -3    1    3    3    0  500  4.73454134343E+01 -2.72183445410E+01  8.79932603546E+00  5.53163139724E+01  2.00000000000E-01  0.0000E+00  9.0
  3000022    1    3    3    0    0  4.06179987472E+01  5.91725939978E+01 -4.90046741371E+01  1.05606229882E+02  6.00000000000E+01  0.0000E+00  9.0
       -2    1    4    4    0  504  9.20376802458E+00  8.08081212858E+00  4.09279557130E+01  4.27212644751E+01  3.00000000000E-03  0.0000E+00  9.0
        1    1    4    4  504    0 -5.61982659279E+01 -3.89968278651E+01  1.84866137922E+01  7.08572691497E+01  5.00000000000E-03  0.0000E+00  9.0
  3000022    1    4    4    0    0 -9.16836359751E+01 -3.43204841088E+01 -3.48573837550E+00  1.14873561393E+02  6.00000000000E+01  0.0000E+00  9.0
</event>
<event>
10    1   3.4312288E-02   4.9750000E+02  -1.0000000E+00   9.3550000E-02
       11   -1    0    0    0    0  0.00000000000E+00  0.00000000000E+00  2.47601934160E+02  2.47601934160E+02  0.00000000000E+00  0.0000E+00  9.0
      -11   -1    0    0    0    0  0.00000000000E+00  0.00000000000E+00 -2.49945373290E+02  2.49945373290E+02  0.00000000000E+00  0.0000E+00  9.0
  3000025    2    1    2    0    0  1.88170833199E+02  1.73173499442E+00  2.86843697054E+01  2.48628112985E+02  1.59943377882E+02  3.0922E-13  9.0
 -3000025    2    1    2    0    0 -1.88170833199E+02 -1.73173499442E+00 -3.10278088354E+01  2.48919194459E+02  1.59958679277E+02  5.3694E-13  9.0
        4    1    3    3  500    0  4.31740017638E+01  6.97909110972E+00  3.66120097412E+01  5.70552094581E+01  1.46817165330E+00  0.0000E+00  9.0
       -3    1    3    3    0  500  4.91062941182E+00  1.79043389350E+00 -3.60652922049E+01  3.64426293861E+01  2.00000000000E-01  0.0000E+00  9.0
  3000022    1    3    3    0    0  1.40086202022E+02 -7.03779000890E+00  2.81376521691E+01  1.55130274140E+02  6.00000000000E+01  0.0000E+00  9.0
       -2    1    4    4    0  504 -6.75686486174E+01 -5.93758817643E+01 -9.78822442102E-01  8.99554095852E+01  3.00000000000E-03  0.0000E+00  9.0
        1    1    4    4  504    0 -3.23453250110E+01  2.74877825844E+01  4.79918443318E+00  4.27180341039E+01  5.00000000000E-03  0.0000E+00  9.0
  3000022    1    4    4    0    0 -8.82568595703E+01  3.01563641856E+01 -3.48481708265E+01  1.16245750770E+02  6.00000000000E+01  0.0000E+00  9.0
</event>
<event>
10    1   3.4312288E-02   5.0000000E+02  -1.0000000E+00   9.3490000E-02
       11   -1    0    0    0    0  0.00000000000E+00  0.00000000000E+00  2.50000000000E+02  2.50000000000E+02  0.00000000000E+00  0.0000E+00  9.0
      -11   -1    0    0    0    0  0.00000000000E+00  0.00000000000E+00 -2.49999999820E+02  2.49999999820E+02  0.00000000000E+00  0.0000E+00  9.0
  3000025    2    1    2    0    0 -1.34292021374E+02 -1.33789695752E+02  3.10975044414E+01  2.49993363292E+02  1.59986240701E+02  2.5778E-13  9.0
 -3000025    2    1    2    0    0  1.34292021374E+02  1.33789695752E+02 -3.10975042634E+01  2.50006636527E+02  1.60006980603E+02  4.9359E-12  9.0
        2    1    3    3  500    0 -2.50518204537E+01 -2.58050808995E+01  5.65230360270E+01  6.69951454882E+01  3.00000000000E-03  0.0000E+00  9.0
       -1    1    3    3    0  500 -1.44689151709E+01 -5.20999971892E+01 -1.97016205005E+01  5.75492231805E+01  5.00000000000E-03  0.0000E+00  9.0
  3000022    1    3    3    0    0 -9.47712857506E+01 -5.58846176640E+01 -5.72391108496E+00  1.25448994625E+02  6.00000000000E+01  0.0000E+00  9.0
       -4    1    4    4    0  504  1.01869046539E+02  5.15804854965E+01 -2.77326007406E+01  1.17512134687E+02  1.46817165330E+00  0.0000E+00  9.0
        3    1    4    4  504    0  7.76523597141E+00  6.32984401446E+01  6.91702627329E+00  6.41473044399E+01  2.00000000000E-01  0.0000E+00  9.0
  3000022    1    4    4    0    0  2.46577388624E+01  1.89107701103E+01 -1.02819297957E+01  6.83471973990E+01  6.00000000000E+01  0.0000E+00  9.0
</event>
<event>
10    1   3.4312288E-02   4.9330000E+02  -1.0000000E+00   9.3640000E-02
       11   -1    0    0    0    0  0.00000000000E+00  0.00000000000E+00  2.43396309120E+02  2.43396309120E+02  0.00000000000E+00  0.0000E+00  9.0
      -11   -1    0    0    0    0  0.00000000000E+00  0.00000000000E+00 -2.49993047610E+02  2.49993047610E+02  0.00000000000E+00  0.0000E+00  9.0
  3000025    2    1    2    0    0  5.40416502243E+01 -9.87924695363E+01  1.46820401022E+02  2.44564313019E+02  1.59921921731E+02  4.8932E-12  9.0
 -3000025    2    1    2    0    0 -5.40416502243E+01  9.87924695363E+01 -1.53417139512E+02  2.48825043710E+02  1.60301689590E+02  4.6976E-13  9.0
       14    1    3    3    0    0 -1.47971142138E+01 -2.27312442463E+01  4.86807675416E+01  5.57268443614E+01  0.00000000000E+00  0.0000E+00  9.0
      -13    1    3    3    0    0  5.65999069969E+01  7.03099409834E+00  2.46722317419E+01  6.21426949986E+01  1.05700000000E-01  0.0000E+00  9.0
  3000022    1    3    3    0    0  1.22388574412E+01 -8.30922193878E+01  7.34674017382E+01  1.26694773659E+02  6.00000000000E+01  0.0000E+00  9.0
       -2    1    4    4    0  500 -7.17108439028E+01  3.21173227292E+01 -7.09197625956E+01  1.05846966363E+02  3.00000000000E-03  0.0000E+00  9.0
        1    1    4    4  500    0  1.50952156682E+01  3.77220428531E+01 -6.02974094476E+01  7.27089792541E+01  5.00000000000E-03  0.0000E+00  9.0
  3000022    1    4    4    0    0  2.57397801018E+00  2.89531039543E+01 -2.21999674701E+01  7.02690980948E+01  6.00000000000E+01  0.0000E+00  9.0
</event>
<event>
10    1   3.4312288E-02   4.7230000E+02  -1.0000000E+00   9.4120000E-02
       11   -1    0    0    0    0  0.00000000000E+00  0.00000000000E+00  2.29473107400E+02  2.29473107400E+02  0.00000000000E+00  0.0000E+00  9.0
      -11   -1    0    0    0    0  0.00000000000E+00  0.00000000000E+00 -2.43044512320E+02  2.43044512320E+02  0.00000000000E+00  0.0000E+00  9.0
  3000025    2    1    2    0    0 -4.96987714839E+01 -1.62153344312E+02  2.99468127199E+01  2.35087340268E+02  1.60017408440E+02  5.2620E-13  9.0
 -3000025    2    1    2    0    0  4.96987714839E+01  1.62153344312E+02 -4.35182176419E+01  2.37430279458E+02  1.60360928466E+02  2.0215E-12  9.0
        4    1    3    3  500    0  1.79221720741E+01 -3.42248199905E+01 -1.51704303973E+01  4.15311935980E+01  1.46817165330E+00  0.0000E+00  9.0
       -3    1    3    3    0  500 -2.93211820136E+01 -3.18044085631E+01  5.89816961512E+01  7.31446006182E+01  2.00000000000E-01  0.0000E+00  9.0
  3000022    1    3    3    0    0 -3.82997615443E+01 -9.61241157577E+01 -1.38644530350E+01  1.20411546051E+02  6.00000000000E+01  0.0000E+00  9.0
       -4    1    4    4    0  504  4.41907923533E+01  7.51329382637E+01 -6.25072411974E+01  1.07271129718E+02  1.46817165330E+00  0.0000E+00  9.0
        3    1    4    4  504    0  2.08140762839E+01  4.09552047521E+01  2.57866161293E+01  5.26834332522E+01  2.00000000000E-01  0.0000E+00  9.0
  3000022    1    4    4    0    0 -1.53060971533E+01  4.60652012966E+01 -6.79759257401E+00  7.74757164882E+01  6.00000000000E+01  0.0000E+00  9.0
</event>
<event>
10    1   3.4312288E-02   5.0000000E+02  -1.0000000E+00   9.3490000E-02
       11   -1    0    0    0    0  0.00000000000E+00  0.00000000000E+00  2.50000000000E+02  2.50000000000E+02  0.00000000000E+00  0.0000E+00  9.0
      -11   -1    0    0    0    0  0.00000000000E+00  0.00000000000E+00 -2.49999999940E+02  2.49999999940E+02  0.00000000000E+00  0.0000E+00  9.0
  3000025    2    1    2    0    0  1.86122085159E+02 -4.15958052299E+01 -2.26833169115E+01  2.49974096982E+02  1.60002733411E+02  2.3076E-14  9.0
 -3000025    2    1    2    0    0 -1.86122085159E+02  4.15958052299E+01  2.26833169685E+01  2.50025902958E+02  1.60083658394E+02  2.6834E-13  9.0
        2    1    3    3  500    0  3.76244541982E+01 -5.14101885552E+01  9.42406035015E+00  6.44004655532E+01  3.00000000000E-03  0.0000E+00  9.0
       -1    1    3    3    0  500  9.61130640794E+00  2.87067324327E+01 -6.66368726550E+00  3.09977168644E+01  5.00000000000E-03  0.0000E+00  9.0
  3000022    1    3    3    0    0  1.38886324553E+02 -1.88923491076E+01 -2.54436899966E+01  1.54575914564E+02  6.00000000000E+01  0.0000E+00  9.0
       -4    1    4    4    0  504 -2.18594150699E+01 -3.13059440262E+01 -4.56660258181E+00  3.84825355936E+01  1.46817165330E+00  0.0000E+00  9.0
        3    1    4    4  504    0 -2.84474607962E+01  2.77933174388E+01  3.92797592266E+01  5.58987120147E+01  2.00000000000E-01  0.0000E+00  9.0
  3000022    1    4    4    0    0 -1.35815209293E+02  4.51084318173E+01 -1.20298396765E+01  1.55644655350E+02  6.00000000000E+01  0.0000E+00  9.0
</event>
<event>
10    1   3.4312288E-02   4.9170000E+02  -1.0000000E+00   9.3680000E-02
       11   -1    0    0    0    0  0.00000000000E+00  0.00000000000E+00  2.41721660040E+02  2.41721660040E+02  0.00000000000E+00  0.0000E+00  9.0
      -11   -1    0    0    0    0  0.00000000000E+00  0.00000000000E+00 -2.50000000000E+02  2.50000000000E+02  0.00000000000E+00  0.0000E+00  9.0
  3000025    2    1    2    0    0  4.60841519958E+01  1.59055294259E+02 -9.02805002889E+01  2.47357399026E+02  1.60039927591E+02  2.1063E-12  9.0
 -3000025    2    1    2    0    0 -4.60841519958E+01 -1.59055294259E+02  8.20021603269E+01  2.44364261014E+02  1.59897473605E+02  2.2179E-13  9.0
        2    1    3    3  500    0 -1.47685681860E+01 -7.37868634443E+00 -4.43802330868E+00  1.70953700844E+01  3.00000000000E-03  0.0000E+00  9.0
       -1    1    3    3    0  500  6.95573583327E+01  7.91941098631E+01 -5.85513009586E+01  1.20574408579E+02  5.00000000000E-03  0.0000E+00  9.0
  3000022    1    3    3    0    0 -8.70463815093E+00  8.72398707406E+01 -2.72911760212E+01  1.09687620363E+02  6.00000000000E+01  0.0000E+00  9.0
       -2    1    4    4    0  504 -8.09762149628E+00 -8.56959802898E+01  1.22314208255E+01  8.69423957350E+01  3.00000000000E-03  0.0000E+00  9.0
        1    1    4    4  504    0 -9.71803250401E+00  1.59744488575E+01 -9.33915317700E+00  2.09007889591E+01  5.00000000000E-03  0.0000E+00  9.0
  3000022    1    4    4    0    0 -2.82684979956E+01 -8.93337628271E+01  7.91098926795E+01  1.36521076320E+02  6.00000000000E+01  0.0000E+00  9.0
</event>
<event>
10    1   3.4312288E-02   5.0000000E+02  -1.0000000E+00   9.3490000E-02
       11   -1    0    0    0    0  0.00000000000E+00  0.00000000000E+00  2.49996473620E+02  2.49996473620E+02  0.00000000000E+00  0.0000E+00  9.0
      -11   -1    0    0    0    0  0.00000000000E+00  0.00000000000E+00 -2.49982355530E+02  2.49982355530E+02  0.00000000000E+00  0.0000E+00  9.0
  3000025    2    1    2    0    0  7.41167498308E+01 -1.69265994121E+02  5.22986006913E+01  2.50018228303E+02  1.60092790214E+02  3.2385E-14  9.0
 -3000025    2    1    2    0    0 -7.41167498308E+01  1.69265994121E+02 -5.22844825933E+01  2.49960600848E+02  1.60007391970E+02  1.8737E-12  9.0
        4    1    3    3  500    0 -1.29911129857E+01 -8.35612504948E+01  4.15889384114E+01  9.42499173849E+01  1.46817165330E+00  0.0000E+00  9.0
       -3    1    3    3    0  500  3.88890862015E+01  9.46374064028E-02  1.13042395387E+01  4.04993310238E+01  2.00000000000E-01  0.0000E+00  9.0
  3000022    1    3    3    0    0  4.82187766150E+01 -8.57993810324E+01 -5.94577258661E-01  1.15268979894E+02  6.00000000000E+01  0.0000E+00  9.0
       -4    1    4    4    0  504  2.38010087473E+00  3.06772618492E+01  3.52540670342E+01  4.68162797027E+01  1.46817165330E+00  0.0000E+00  9.0
        3    1    4    4  504    0 -1.35917445109E+01  2.18563304584E+01 -4.44334984239E+01  5.13498829809E+01  2.00000000000E-01  0.0000E+00  9.0
  3000022    1    4    4    0    0 -6.29051061946E+01  1.16732401813E+02 -4.31050512047E+01  1.51794438165E+02  6.00000000000E+01  0.0000E+00  9.0
</event>
<event>
10    1   3.4312288E-02   4.9990000E+02  -1.0000000E+00   9.3490000E-02
       11   -1    0    0    0    0  0.00000000000E+00  0.00000000000E+00  2.49999999990E+02  2.49999999990E+02  0.00000000000E+00  0.0000E+00  9.0
      -11   -1    0    0    0    0  0.00000000000E+00  0.00000000000E+00 -2.49858594880E+02  2.49858594880E+02  0.00000000000E+00  0.0000E+00  9.0
  3000025    2    1    2    0    0  1.61151780409E+02  1.04688572035E+02 -6.07159089636E-01  2.49810421780E+02  1.59609788998E+02  2.1928E-12  9.0
 -3000025    2    1    2    0    0 -1.61151780409E+02 -1.04688572035E+02  7.48564193256E-01  2.50048173089E+02  1.59981045981E+02  2.4047E-12  9.0
        2    1    3    3  500    0  2.12362559132E+01  4.30627041560E+01 -3.98752873890E+01  6.24132486559E+01  3.00000000000E-03  0.0000E+00  9.0
       -1    1    3    3    0  500  4.83915622659E+01  4.69635940172E+01  3.70879745931E+01  7.69599918527E+01  5.00000000000E-03  0.0000E+00  9.0
  3000022    1    3    3    0    0  9.15239622293E+01  1.46622738620E+01  2.18015370558E+00  1.10437181271E+02  6.00000000000E+01  0.0000E+00  9.0
       -4    1    4    4    0  504  3.03135597527E+00 -1.45694616920E+01  8.27357744691E-01  1.49765944689E+01  1.46817165330E+00  0.0000E+00  9.0
        3    1    4    4  504    0 -5.19428112062E+00  1.09667116066E+01 -3.25113917758E+01  3.47027364198E+01  2.00000000000E-01  0.0000E+00  9.0
  3000022    1    4    4    0    0 -1.58988855263E+02 -1.01085821949E+02  3.24325982244E+01  2.00368842200E+02  6.00000000000E+01  0.0000E+00  9.0
</event>
<event>
10    1   3.4312288E-02   4.3050000E+02  -1.0000000E+00   9.5180000E-02
       11   -1    0    0    0    0  0.00000000000E+00  0.00000000000E+00  1.85717736190E+02  1.85717736190E+02  0.00000000000E+00  0.0000E+00  9.0
      -11   -1    0    0    0    0  0.00000000000E+00  0.00000000000E+00 -2.49469460000E+02  2.49469460000E+02  0.00000000000E+00  0.0000E+00  9.0
  3000025    2    1    2    0    0  4.83859120033E+01 -1.35581084136E+02 -3.36315761177E+01  2.17800079625E+02  1.59944880871E+02  1.8978E-13  9.0
 -3000025    2    1    2    0    0 -4.83859120033E+01  1.35581084136E+02 -3.01201476913E+01  2.17387116575E+02  1.60082817004E+02  2.0925E-12  9.0
        4    1    3    3  500    0 -3.06444171990E+01 -5.13638917955E+01 -1.66632852815E+01  6.21059601828E+01  1.46817165330E+00  0.0000E+00  9.0
       -3    1    3    3    0  500  3.96784749165E+01 -2.06608414736E+01 -3.66603449146E+01  5.78383318515E+01  2.00000000000E-01  0.0000E+00  9.0
  3000022    1    3    3    0    0  3.93518542857E+01 -6.35563508662E+01  1.96920540782E+01  9.78557875905E+01  6.00000000000E+01  0.0000E+00  9.0
      -14    1    4    4    0    0  2.48976877011E+01  1.43376600249E+01 -2.14512465512E+01  3.58555341119E+01  0.00000000000E+00  0.0000E+00  9.0
       13    1    4    4    0    0 -6.31036002501E+01  5.09207636957E+01 -2.93959046023E+01  8.62503270704E+01  1.05700000000E-01  0.0000E+00  9.0
  3000022    1    4    4    0    0 -1.01799994543E+01  7.03226604149E+01  2.07270034613E+01  9.52812553927E+01  6.00000000000E+01  0.0000E+00  9.0
</event>
<event>
10    1   3.4312288E-02   4.9950000E+02  -1.0000000E+00   9.3500000E-02
       11   -1    0    0    0    0  0.00000000000E+00  0.00000000000E+00  2.50000000000E+02  2.50000000000E+02  0.00000000000E+00  0.0000E+00  9.0
      -11   -1    0    0    0    0  0.00000000000E+00  0.00000000000E+00 -2.49533674050E+02  2.49533674050E+02  0.00000000000E+00  0.0000E+00  9.0
  3000025    2    1    2    0    0  1.19738348607E+02 -6.90588476128E+01  1.33132911776E+02  2.49932746068E+02  1.60111238826E+02  1.3723E-13  9.0
 -3000025    2    1    2    0    0 -1.19738348607E+02  6.90588476128E+01 -1.32666585826E+02  2.49600927971E+02  1.59980635354E+02  1.4660E-12  9.0
        2    1    3    3  500    0  3.57275154120E+00 -4.94135011413E+01  3.31063649721E+01  5.95859887833E+01  3.00000000000E-03  0.0000E+00  9.0
       -1    1    3    3    0  500  4.33775332513E+01  1.05146648116E+01 -6.26242086044E+00  4.50709053281E+01  5.00000000000E-03  0.0000E+00  9.0
  3000022    1    3    3    0    0  7.27880638141E+01 -3.01600112830E+01  1.06288967665E+02  1.45275851957E+02  6.00000000000E+01  0.0000E+00  9.0
       -4    1    4    4    0  504 -7.86394685039E+01  1.53110434162E+00 -1.02091691684E+02  1.28885140051E+02  1.46817165330E+00  0.0000E+00  9.0
        3    1    4    4  504    0 -2.14217978032E+01  4.39977517923E+01 -1.81536069568E+01  5.21947222374E+01  2.00000000000E-01  0.0000E+00  9.0
  3000022    1    4    4    0    0 -1.96770823004E+01  2.35299914789E+01 -1.24212871849E+01  6.85210656819E+01  6.00000000000E+01  0.0000E+00  9.0
</event>
<event>
10    1   3.4312288E-02   4.0370000E+02  -1.0000000E+00   9.5920000E-02
       11   -1    0    0    0    0  0.00000000000E+00  0.00000000000E+00  2.49567873510E+02  2.49567873510E+02  0.00000000000E+00  0.0000E+00  9.0
      -11   -1    0    0    0    0  0.00000000000E+00  0.00000000000E+00 -1.63236809370E+02  1.63236809370E+02  0.00000000000E+00  0.0000E+00  9.0
  3000025    2    1    2    0    0  1.02858401979E+02 -6.61580933448E+01  2.62377279403E+01  2.02612180101E+02  1.59394268984E+02  1.0386E-14  9.0
 -3000025    2    1    2    0    0 -1.02858401979E+02  6.61580933448E+01  6.00933362007E+01  2.10192502780E+02  1.60040416759E+02  2.4885E-12  9.0
        2    1    3    3  500    0  6.22123421468E+01  2.57359433679E+00  5.90268407339E+01  8.57972426085E+01  3.00000000000E-03  0.0000E+00  9.0
       -1    1    3    3    0  500 -5.37465869226E+00 -2.19502955472E+01 -1.16227802059E+01  2.54124275775E+01  5.00000000000E-03  0.0000E+00  9.0
  3000022    1    3    3    0    0  4.60207185238E+01 -4.67813921333E+01 -2.11663325878E+01  9.14025099141E+01  6.00000000000E+01  0.0000E+00  9.0
      -14    1    4    4    0    0 -5.79371138143E+01 -8.69172753905E+00  8.24416748511E-01  5.85912531673E+01  0.00000000000E+00  0.0000E+00  9.0
       13    1    4    4    0    0 -2.92056461817E+01  6.59605994068E+01  1.20346709412E+01  7.31342253678E+01  1.05700000000E-01  0.0000E+00  9.0
  3000022    1    4    4    0    0 -1.57156419819E+01  8.88922147692E+00  4.72342485102E+01  7.84670242439E+01  6.00000000000E+01  0.0000E+00  9.0
</event>
<event>
10    1   3.4312288E-02   4.9570000E+02  -1.0000000E+00   9.3590000E-02
       11   -1    0    0    0    0  0.00000000000E+00  0.00000000000E+00  2.45760277080E+02  2.45760277080E+02  0.00000000000E+00  0.0000E+00  9.0
      -11   -1    0    0    0    0  0.00000000000E+00  0.00000000000E+00 -2.50000000000E+02  2.50000000000E+02  0.00000000000E+00  0.0000E+00  9.0
  3000025    2    1    2    0    0  1.44272060221E+02 -8.92168573022E+01 -8.66511950310E+01  2.48403392772E+02  1.59441967352E+02  6.0971E-14  9.0
 -3000025    2    1    2    0    0 -1.44272060221E+02  8.92168573022E+01  8.24114721090E+01  2.47356884301E+02  1.60061558435E+02  3.4622E-12  9.0
        2    1    3    3  500    0  7.91536604275E+01 -9.06848965050E+00  4.97884764832E-01  7.96730027164E+01  3.00000000000E-03  0.0000E+00  9.0
       -1    1    3    3    0  500  3.99437628990E+01 -3.90670924333E+01 -4.88489621417E+00  5.60856857116E+01  5.00000000000E-03  0.0000E+00  9.0
  3000022    1    3    3    0    0  2.51746368944E+01 -4.10812752178E+01 -8.22641835816E+01  1.12644704344E+02  6.00000000000E+01  0.0000E+00  9.0
       -2    1    4    4    0  504 -3.38032692314E+01 -6.16056500612E+00 -2.31885999144E+01  4.14526808170E+01  3.00000000000E-03  0.0000E+00  9.0
        1    1    4    4  504    0 -5.53512747959E+01  1.88829281673E+01  6.38975032873E+01  8.66211264592E+01  5.00000000000E-03  0.0000E+00  9.0
  3000022    1    4    4    0    0 -5.51175161943E+01  7.64944941417E+01  4.17025687367E+01  1.19283077025E+02  6.00000000000E+01  0.0000E+00  9.0
</event>
<event>
10    1   3.4312288E-02   5.0000000E+02  -1.0000000E+00   9.3490000E-02
       11   -1    0    0    0    0  0.00000000000E+00  0.00000000000E+00  2.49975951080E+02  2.49975951080E+02  0.00000000000E+00  0.0000E+00  9.0
      -11   -1    0    0    0    0  0.00000000000E+00  0.00000000000E+00 -2.50000000000E+02  2.50000000000E+02  0.00000000000E+00  0.0000E+00  9.0
  3000025    2    1    2    0    0 -1.16115438382E+01  1.88162190403E+02 -3.81468747787E+01  2.49795084708E+02  1.59381813396E+02  4.9333E-13  9.0
 -3000025    2    1    2    0    0  1.16115438382E+01 -1.88162190403E+02  3.81228258577E+01  2.50180866370E+02  1.59991494145E+02  2.4712E-12  9.0
        2    1    3    3  500    0 -1.48596735042E+01 -1.72114262054E+00  1.49278330776E+01  2.11332069967E+01  3.00000000000E-03  0.0000E+00  9.0
       -1    1    3    3    0  500  1.89946286290E+01  1.39013074453E+02 -1.93278741650E+01  1.41629790406E+02  5.00000000000E-03  0.0000E+00  9.0
  3000022    1    3    3    0    0 -1.57464989620E+01  5.08702585700E+01 -3.37468336911E+01  8.70320873053E+01  6.00000000000E+01  0.0000E+00  9.0
       -2    1    4    4    0  504 -3.33077465092E+01 -7.19957140619E+01  1.39179471499E+01  8.05387986170E+01  3.00000000000E-03  0.0000E+00  9.0
        1    1    4    4  504    0  2.49778013706E+01 -6.58047443618E-01  2.84859471460E+01  3.78915927027E+01  5.00000000000E-03  0.0000E+00  9.0
  3000022    1    4    4    0    0  1.99414889768E+01 -1.15508428897E+02 -4.28106843806E+00  1.31750475050E+02  6.00000000000E+01  0.0000E+00  9.0
</event>
<event>
10    1   3.4312288E-02   4.9600000E+02  -1.0000000E+00   9.3580000E-02
       11   -1    0    0    0    0  0.00000000000E+00  0.00000000000E+00  2.46454019470E+02  2.46454019470E+02  0.00000000000E+00  0.0000E+00  9.0
      -11   -1    0    0    0    0  0.00000000000E+00  0.00000000000E+00 -2.49591828660E+02  2.49591828660E+02  0.00000000000E+00  0.0000E+00  9.0
  3000025    2    1    2    0    0  1.09825027770E+02 -1.53436936803E+02 -1.80164046592E+01  2.48062583730E+02  1.60018824861E+02  7.3423E-13  9.0
 -3000025    2    1    2    0    0 -1.09825027770E+02  1.53436936803E+02  1.48785954612E+01  2.47983264397E+02  1.60218277727E+02  3.0925E-12  9.0
        4    1    3    3  500    0  1.49869199979E+01 -6.89781101424E+01  2.94063529122E+01  7.64818708548E+01  1.46817165330E+00  0.0000E+00  9.0
       -3    1    3    3    0  500  7.77855004436E+01 -5.84081701067E+01 -2.64812018881E+01  1.00813652190E+02  2.00000000000E-01  0.0000E+00  9.0
  3000022    1    3    3    0    0  1.70526073280E+01 -2.60506565541E+01 -2.09415556823E+01  7.07670606849E+01  6.00000000000E+01  0.0000E+00  9.0
       -4    1    4    4    0  504  4.39799061307E-01  5.44397647393E+01 -1.86451418881E+01  5.75645572563E+01  1.46817165330E+00  0.0000E+00  9.0
        3    1    4    4  504    0 -2.32484664485E+01  9.52058080405E+00  4.49179346384E+01  5.14664308383E+01  2.00000000000E-01  0.0000E+00  9.0
  3000022    1    4    4    0    0 -8.70163603822E+01  8.94765912601E+01 -1.13941972891E+01  1.38952276302E+02  6.00000000000E+01  0.0000E+00  9.0
</event>
<event>
10    1   3.4312288E-02   4.9140000E+02  -1.0000000E+00   9.3680000E-02
       11   -1    0    0    0    0  0.00000000000E+00  0.00000000000E+00  2.41759748060E+02  2.41759748060E+02  0.00000000000E+00  0.0000E+00  9.0
      -11   -1    0    0    0    0  0.00000000000E+00  0.00000000000E+00 -2.49693209030E+02  2.49693209030E+02  0.00000000000E+00  0.0000E+00  9.0
  3000025    2    1    2    0    0  6.87132957731E+01  1.72812353393E+02  5.14884963074E+00  2.45411270910E+02  1.60045477088E+02  6.2989E-13  9.0
 -3000025    2    1    2    0    0 -6.87132957731E+01 -1.72812353393E+02 -1.30823106002E+01  2.46041686179E+02  1.60560698760E+02  1.8422E-12  9.0
        2    1    3    3  500    0  5.73657519281E+01  2.84648937943E+01  2.27667938175E+01  6.79662164809E+01  3.00000000000E-03  0.0000E+00  9.0
       -1    1    3    3    0  500 -6.56121557037E+00  6.64866121486E+01  2.14424472609E+01  7.01662149064E+01  5.00000000000E-03  0.0000E+00  9.0
  3000022    1    3    3    0    0  1.79087594154E+01  7.78608474500E+01 -3.90603914476E+01  1.07278839523E+02  6.00000000000E+01  0.0000E+00  9.0
       -4    1    4    4    0  504 -9.82760156623E+00 -5.20574970915E+01 -2.83747942483E+01  6.01152994887E+01  1.46817165330E+00  0.0000E+00  9.0
        3    1    4    4  504    0 -3.92125817628E+01 -5.98691011188E+01  5.43911673985E+01  8.98909057037E+01  2.00000000000E-01  0.0000E+00  9.0
  3000022    1    4    4    0    0 -1.96731124440E+01 -6.08857551824E+01 -3.90986837504E+01  9.60354809868E+01  6.00000000000E+01  0.0000E+00  9.0
</event>
<event>
10    1   3.4312288E-02   4.9970000E+02  -1.0000000E+00   9.3500000E-02
       11   -1    0    0    0    0  0.00000000000E+00  0.00000000000E+00  2.49667693130E+02  2.49667693130E+02  0.00000000000E+00  0.0000E+00  9.0
      -11   -1    0    0    0    0  0.00000000000E+00  0.00000000000E+00 -2.50000000000E+02  2.50000000000E+02  0.00000000000E+00  0.0000E+00  9.0
  3000025    2    1    2    0    0 -1.40125235940E+02 -1.20505954422E+02 -5.22483804490E+01  2.49989272877E+02  1.60024924607E+02  9.2896E-13  9.0
 -3000025    2    1    2    0    0  1.40125235940E+02  1.20505954422E+02  5.19160735770E+01  2.49678420246E+02  1.59647323944E+02  8.1383E-13  9.0
        2    1    3    3  500    0  1.73173816767E+01 -3.50443807605E+01  2.59933974396E+00  3.91759735951E+01  3.00000000000E-03  0.0000E+00  9.0
       -1    1    3    3    0  500 -5.76391909526E+01 -2.32080428908E+01 -4.81297802906E+01  7.85962172392E+01  5.00000000000E-03  0.0000E+00  9.0
  3000022    1    3    3    0    0 -9.98034266640E+01 -6.22535307716E+01 -6.71793990343E+00  1.32217082043E+02  6.00000000000E+01  0.0000E+00  9.0
       -4    1    4    4    0  504  4.44646644636E+01 -1.40129868278E+01 -1.89412946800E+00  4.66820462292E+01  1.46817165330E+00  0.0000E+00  9.0
        3    1    4    4  504    0 -8.94087528960E+00  3.73508090887E+01  2.39997037189E+01  4.52884970950E+01  2.00000000000E-01  0.0000E+00  9.0
  3000022    1    4    4    0    0  1.04601446766E+02  9.71681321613E+01  2.98104993267E+01  1.57707876922E+02  6.00000000000E+01  0.0000E+00  9.0
</event>
<event>
10    1   3.4312288E-02   4.0420000E+02  -1.0000000E+00   9.5910000E-02
       11   -1    0    0    0    0  0.00000000000E+00  0.00000000000E+00  2.32883734030E+02  2.32883734030E+02  0.00000000000E+00  0.0000E+00  9.0
      -11   -1    0    0    0    0  0.00000000000E+00  0.00000000000E+00 -1.75358591900E+02  1.75358591900E+02  0.00000000000E+00  0.0000E+00  9.0
  3000025    2    1    2    0    0 -1.06451314929E+01 -1.20948022143E+02  5.11417768303E+00  2.00974567441E+02  1.60071481095E+02  2.4551E-13  9.0
 -3000025    2    1    2    0    0  1.06451314929E+01  1.20948022143E+02  5.24109644444E+01  2.07267758497E+02  1.59597216873E+02  4.5358E-13  9.0
        2    1    3    3  500    0 -2.76492349925E+01 -5.79761136798E+01 -1.28282988727E+01  6.55001924734E+01  3.00000000000E-03  0.0000E+00  9.0
       -1    1    3    3    0  500  3.92914508127E+01 -4.81413884534E+01  2.94619916600E+01  6.87707813447E+01  5.00000000000E-03  0.0000E+00  9.0
  3000022    1    3    3    0    0 -2.22873473131E+01 -1.48305200098E+01 -1.15195151033E+01  6.67035936231E+01  6.00000000000E+01  0.0000E+00  9.0
      -14    1    4    4    0    0  3.57615040323E+01  8.50933030901E+01  3.46335795501E+01  9.85862071178E+01  0.00000000000E+00  0.0000E+00  9.0
       13    1    4    4    0    0 -3.61078242254E+01  2.75815519488E+01  4.08638388349E+00  4.56204634340E+01  1.05700000000E-01  0.0000E+00  9.0
  3000022    1    4    4    0    0  1.09914516859E+01  8.27316710356E+00  1.36910010112E+01  6.30610879447E+01  6.00000000000E+01  0.0000E+00  9.0
</event>
<event>
10    1   3.4312288E-02   4.8200000E+02  -1.0000000E+00   9.3900000E-02
       11   -1    0    0    0    0  0.00000000000E+00  0.00000000000E+00  2.33292022230E+02  2.33292022230E+02  0.00000000000E+00  0.0000E+00  9.0
      -11   -1    0    0    0    0  0.00000000000E+00  0.00000000000E+00 -2.48978781110E+02  2.48978781110E+02  0.00000000000E+00  0.0000E+00  9.0
  3000025    2    1    2    0    0 -7.91956772188E+01  1.62079162994E+02 -8.01362324601E+00  2.41199918146E+02  1.59911137791E+02  6.9575E-13  9.0
 -3000025    2    1    2    0    0  7.91956772189E+01 -1.62079162994E+02 -7.67313563089E+00  2.41070885191E+02  1.59733165966E+02  1.0506E-12  9.0
       14    1    3    3    0    0  6.43562961269E+00  5.52451231845E+01 -2.58678102858E+01  6.13399101170E+01  0.00000000000E+00  0.0000E+00  9.0
      -13    1    3    3    0    0 -2.66367101960E+01 -1.52128451815E+01  4.73404051795E+00  3.10381587839E+01  1.05700000000E-01  0.0000E+00  9.0
  3000022    1    3    3    0    0 -5.89945966367E+01  1.22046884991E+02  1.31201465214E+01  1.48821849246E+02  6.00000000000E+01  0.0000E+00  9.0
       -4    1    4    4    0  500  4.30837624828E+01 -1.17102964958E+02  1.44542251312E+01  1.25620042763E+02  1.46817165330E+00  0.0000E+00  9.0
        3    1    4    4  500    0  2.47089625827E+01 -2.64656580461E+01 -3.49880218257E+01  5.03504275951E+01  2.00000000000E-01  0.0000E+00  9.0
  3000022    1    4    4    0    0  1.14029521537E+01 -1.85105399910E+01  1.28606610626E+01  6.51004148339E+01  6.00000000000E+01  0.0000E+00  9.0
</event>
<event>
10    1   3.4312288E-02   4.8990000E+02  -1.0000000E+00   9.3720000E-02
       11   -1    0    0    0    0  0.00000000000E+00  0.00000000000E+00  2.48893830300E+02  2.48893830300E+02  0.00000000000E+00  0.0000E+00  9.0
      -11   -1    0    0    0    0  0.00000000000E+00  0.00000000000E+00 -2.41112640160E+02  2.41112640160E+02  0.00000000000E+00  0.0000E+00  9.0
  3000025    2    1    2    0    0  6.01639665006E+01 -7.55323697389E+01 -1.54223598159E+02  2.42609181886E+02  1.60466367699E+02  6.6148E-13  9.0
 -3000025    2    1    2    0    0 -6.01639665006E+01  7.55323697389E+01  1.62004788309E+02  2.47397288572E+02  1.60109416382E+02  2.2575E-12  9.0
        4    1    3    3  500    0  4.60831912121E+01  1.63701304022E+01 -8.62620497360E+01  9.91712581060E+01  1.46817165330E+00  0.0000E+00  9.0
       -3    1    3    3    0  500 -1.77619068549E+01 -1.51094453670E+01 -7.92827818813E+00  2.46308398040E+01  2.00000000000E-01  0.0000E+00  9.0
  3000022    1    3    3    0    0  3.18426821431E+01 -7.67930547743E+01 -6.00332702353E+01  1.18807083976E+02  6.00000000000E+01  0.0000E+00  9.0
       -4    1    4    4    0  504 -1.13465957185E+01 -3.02161867595E+01  3.63888893980E+00  3.25140003292E+01  1.46817165330E+00  0.0000E+00  9.0
        3    1    4    4  504    0 -3.73081411169E+01  3.77551298118E+01  6.89375949218E+01  8.70044781279E+01  2.00000000000E-01  0.0000E+00  9.0
  3000022    1    4    4    0    0 -1.15092296656E+01  6.79934266856E+01  8.94283044477E+01  1.27878810115E+02  6.00000000000E+01  0.0000E+00  9.0
</event>
<event>
10    1   3.4312288E-02   4.9990000E+02  -1.0000000E+00   9.3490000E-02
       11   -1    0    0    0    0  0.00000000000E+00  0.00000000000E+00  2.49999999990E+02  2.49999999990E+02  0.00000000000E+00  0.0000E+00  9.0
      -11   -1    0    0    0    0  0.00000000000E+00  0.00000000000E+00 -2.49941234890E+02  2.49941234890E+02  0.00000000000E+00  0.0000E+00  9.0
  3000025    2    1    2    0    0  7.18654216703E+01 -1.53984500886E+02  8.94739885507E+01  2.49992150411E+02  1.60045666279E+02  7.7270E-14  9.0
 -3000025    2    1    2    0    0 -7.18654216703E+01  1.53984500886E+02 -8.94152234447E+01  2.49949084474E+02  1.60011241170E+02  5.5040E-13  9.0
        4    1    3    3  500    0  6.34064527290E+01 -8.19220362841E+01  3.51990904545E+01  1.09419969720E+02  1.46817165330E+00  0.0000E+00  9.0
       -3    1    3    3    0  500 -3.23105820888E+00 -2.10692267320E+01  5.70668967989E+01  6.09181644707E+01  2.00000000000E-01  0.0000E+00  9.0
  3000022    1    3    3    0    0  1.16900271492E+01 -5.09932378706E+01 -2.79199870245E+00  7.96540162203E+01  6.00000000000E+01  0.0000E+00  9.0
       -2    1    4    4    0  504 -6.00438341949E+01  8.23531005018E+00 -2.39064501492E+01  6.51506003363E+01  3.00000000000E-03  0.0000E+00  9.0
        1    1    4    4  504    0  1.13484937519E+01  3.92598733222E+01  5.99982754967E+00  4.13052529267E+01  5.00000000000E-03  0.0000E+00  9.0
  3000022    1    4    4    0    0 -2.31700812274E+01  1.06489317514E+02 -7.15086008456E+01  1.43493231212E+02  6.00000000000E+01  0.0000E+00  9.0
</event>
<event>
10    1   3.4312288E-02   4.0120000E+02  -1.0000000E+00   9.5990000E-02
       11   -1    0    0    0    0  0.00000000000E+00  0.00000000000E+00  2.49999883040E+02  2.49999883040E+02  0.00000000000E+00  0.0000E+00  9.0
      -11   -1    0    0    0    0  0.00000000000E+00  0.00000000000E+00 -1.60996267070E+02  1.60996267070E+02  0.00000000000E+00  0.0000E+00  9.0
  3000025    2    1    2    0    0 -9.81038075939E+01  6.10987763422E+01  8.12982934876E+01  2.13470148572E+02  1.60008356883E+02  3.9613E-13  9.0
 -3000025    2    1    2    0    0  9.81038075939E+01 -6.10987763422E+01  7.70532248086E+00  1.97526001538E+02  1.59999161729E+02  1.6412E-12  9.0
       14    1    3    3    0    0 -1.64556359243E+01 -6.74191633769E+00  3.67076530777E+01  4.07883952130E+01  0.00000000000E+00  0.0000E+00  9.0
      -13    1    3    3    0    0 -4.37721968086E+01  8.18557498258E+01  3.71194434937E+01  9.99711620957E+01  1.05700000000E-01  0.0000E+00  9.0
  3000022    1    3    3    0    0 -3.78759748610E+01 -1.40150571459E+01  7.47119691674E+00  7.27105912632E+01  6.00000000000E+01  0.0000E+00  9.0
       -2    1    4    4    0  500 -1.70467790498E+00  1.79875781786E+01 -2.16901997238E+01  2.82298364953E+01  3.00000000000E-03  0.0000E+00  9.0
        1    1    4    4  500    0  6.73487631370E+01 -9.13599255118E+00  2.14336266544E+01  7.12651572127E+01  5.00000000000E-03  0.0000E+00  9.0
  3000022    1    4    4    0    0  3.24597223617E+01 -6.99503619685E+01  7.96189554988E+00  9.80310078295E+01  6.00000000000E+01  0.0000E+00  9.0
</event>
<event>
10    1   3.4312288E-02   4.9920000E+02  -1.0000000E+00   9.3510000E-02
       11   -1    0    0    0    0  0.00000000000E+00  0.00000000000E+00  2.50000000000E+02  2.50000000000E+02  0.00000000000E+00  0.0000E+00  9.0
      -11   -1    0    0    0    0  0.00000000000E+00  0.00000000000E+00 -2.49184342680E+02  2.49184342680E+02  0.00000000000E+00  0.0000E+00  9.0
  3000025    2    1    2    0    0  1.64055298414E+02  6.26726630169E+01 -7.67236799263E+01  2.49670477288E+02  1.60021312769E+02  8.7492E-13  9.0
 -3000025    2    1    2    0    0 -1.64055298414E+02 -6.26726630169E+01  7.75393372443E+01  2.49513865395E+02  1.59382610648E+02  3.3508E-13  9.0
        4    1    3    3  500    0  8.98359285937E+01  3.39927328062E+01 -5.61072748452E+01  1.11248288834E+02  1.46817165330E+00  0.0000E+00  9.0
       -3    1    3    3    0  500  3.28386291009E+01  3.34417673304E+01  2.41787447781E+01  5.27387813895E+01  2.00000000000E-01  0.0000E+00  9.0
  3000022    1    3    3    0    0  4.13807407193E+01 -4.76183711962E+00 -4.47951498592E+01  8.56834070643E+01  6.00000000000E+01  0.0000E+00  9.0
       -2    1    4    4    0  504 -1.32721712634E+01  2.63461436813E+01  4.78254314734E+00  2.98854905410E+01  3.00000000000E-03  0.0000E+00  9.0
        1    1    4    4  504    0 -5.28324802282E+01 -4.69478175335E+01  6.66502054420E+01  9.71474057743E+01  5.00000000000E-03  0.0000E+00  9.0
  3000022    1    4    4    0    0 -9.79506469226E+01 -4.20709891637E+01  6.10658865410E+00  1.22480969080E+02  6.00000000000E+01  0.0000E+00  9.0
</event>
<event>
10    1   3.4312288E-02   4.9340000E+02  -1.0000000E+00   9.3640000E-02
       11   -1    0    0    0    0  0.00000000000E+00  0.00000000000E+00  2.49889651070E+02  2.49889651070E+02  0.00000000000E+00  0.0000E+00  9.0
      -11   -1    0    0    0    0  0.00000000000E+00  0.00000000000E+00 -2.43593702290E+02  2.43593702290E+02  0.00000000000E+00  0.0000E+00  9.0
  3000025    2    1    2    0    0 -6.03004672903E+01  1.68435303199E+02 -5.38710005705E+01  2.46069084673E+02  1.60129047989E+02  3.5274E-12  9.0
 -3000025    2    1    2    0    0  6.03004672903E+01 -1.68435303199E+02  6.01669493425E+01  2.47414268686E+02  1.59959872583E+02  2.7654E-13  9.0
        2    1    3    3  500    0 -3.44361014486E+01  8.43661755138E+01 -4.65790909897E+01  1.02338205868E+02  3.00000000000E-03  0.0000E+00  9.0
       -1    1    3    3    0  500  1.89201321890E+01  4.42939044352E+01  2.34219745920E+01  5.35584754353E+01  5.00000000000E-03  0.0000E+00  9.0
  3000022    1    3    3    0    0 -4.47844980306E+01  3.97752232499E+01 -3.07138841722E+01  9.01724033692E+01  6.00000000000E+01  0.0000E+00  9.0
      -14    1    4    4    0    0  6.83352148638E+01 -4.62674867757E+01 -1.00483818631E+01  8.31345409627E+01  0.00000000000E+00  0.0000E+00  9.0
       13    1    4    4    0    0 -7.95457353423E+00 -6.51253818022E+01  2.77613529636E+01  7.12411010994E+01  1.05700000000E-01  0.0000E+00  9.0
  3000022    1    4    4    0    0 -8.01740391726E-02 -5.70424346220E+01  4.24539782421E+01  9.30386266239E+01  6.00000000000E+01  0.0000E+00  9.0
</event>
<event>
10    1   3.4312288E-02   4.9510000E+02  -1.0000000E+00   9.3600000E-02
       11   -1    0    0    0    0  0.00000000000E+00  0.00000000000E+00  2.45736901390E+02  2.45736901390E+02  0.00000000000E+00  0.0000E+00  9.0
      -11   -1    0    0    0    0  0.00000000000E+00  0.00000000000E+00 -2.49365043210E+02  2.49365043210E+02  0.00000000000E+00  0.0000E+00  9.0
  3000025    2    1    2    0    0  1.30126678779E+02  1.06104568347E+02 -8.81278125763E+01  2.48165375420E+02  1.60088757425E+02  1.7813E-14  9.0
 -3000025    2    1    2    0    0 -1.30126678779E+02 -1.06104568347E+02  8.44996707493E+01  2.46936569182E+02  1.60144756044E+02  2.3211E-13  9.0
        4    1    3    3  500    0 -7.09128483489E+00  2.53155789272E+00  1.38202457727E+01  1.58066387064E+01  1.46817165330E+00  0.0000E+00  9.0
       -3    1    3    3    0  500  5.58075153812E+01  7.34237644673E+01 -8.51051214038E+01  1.25492827089E+02  2.00000000000E-01  0.0000E+00  9.0
  3000022    1    3    3    0    0  8.14104482327E+01  3.01492459871E+01 -1.68429369453E+01  1.06865909625E+02  6.00000000000E+01  0.0000E+00  9.0
       -2    1    4    4    0  504 -1.28361999596E+01 -4.15049381691E+01  4.13276884235E+01  5.99617024545E+01  3.00000000000E-03  0.0000E+00  9.0
        1    1    4    4  504    0 -9.58217921382E+01 -5.46026169310E+01  1.72207225796E+00  1.10300621858E+02  5.00000000000E-03  0.0000E+00  9.0
  3000022    1    4    4    0    0 -2.14686866797E+01 -9.99701324662E+00  4.14499100666E+01  7.66742448684E+01  6.00000000000E+01  0.0000E+00  9.0
</event>
<event>
10    1   3.4312288E-02   4.0980000E+02  -1.0000000E+00   9.5750000E-02
       11   -1    0    0    0    0  0.00000000000E+00  0.00000000000E+00  2.48580182040E+02  2.48580182040E+02  0.00000000000E+00  0.0000E+00  9.0
      -11   -1    0    0    0    0  0.00000000000E+00  0.00000000000E+00 -1.68884031780E+02  1.68884031780E+02  0.00000000000E+00  0.0000E+00  9.0
  3000025    2    1    2    0    0  1.10998443997E+02  2.72645228859E+01  9.83951217594E+01  2.19920156190E+02  1.60060195972E+02  4.8183E-12  9.0
 -3000025    2    1    2    0    0 -1.10998443997E+02 -2.72645228859E+01 -1.86989714974E+01  1.97544057636E+02  1.60031229434E+02  6.0008E-14  9.0
        4    1    3    3  500    0 -4.86224116248E-01  3.75909817611E+01  6.41884196625E+01  7.44017948065E+01  1.46817165330E+00  0.0000E+00  9.0
       -3    1    3    3    0  500  5.47771512796E+00 -9.69270589575E+00 -1.09401354564E+01  1.56102682363E+01  2.00000000000E-01  0.0000E+00  9.0
  3000022    1    3    3    0    0  1.06006952985E+02 -6.33752980437E-01  4.51468375536E+01  1.29908093147E+02  6.00000000000E+01  0.0000E+00  9.0
       -4    1    4    4    0  504 -5.30312804361E+01  4.31649387263E+00 -5.03493246518E+01  7.32677203477E+01  1.46817165330E+00  0.0000E+00  9.0
        3    1    4    4  504    0 -3.87045892212E+01  7.84428559979E+00  3.05600394578E+01  4.99352986876E+01  2.00000000000E-01  0.0000E+00  9.0
  3000022    1    4    4    0    0 -1.92625743394E+01 -3.94253023584E+01  1.09031369574E+00  7.43410386004E+01  6.00000000000E+01  0.0000E+00  9.0
</event>
<event>
10    1   3.4312288E-02   4.7660000E+02  -1.0000000E+00   9.4020000E-02
       11   -1    0    0    0    0  0.00000000000E+00  0.00000000000E+00  2.49775673310E+02  2.49775673310E+02  0.00000000000E+00  0.0000E+00  9.0
      -11   -1    0    0    0    0  0.00000000000E+00  0.00000000000E+00 -2.27365661130E+02  2.27365661130E+02  0.00000000000E+00  0.0000E+00  9.0
  3000025    2    1    2    0    0 -1.51238610641E+02 -2.63755535526E+01 -7.61450056022E+01  2.34503783408E+02  1.60078653732E+02  3.1942E-12  9.0
 -3000025    2    1    2    0    0  1.51238610641E+02  2.63755535526E+01  9.85550177822E+01  2.42637551026E+02  1.59972192784E+02  2.8922E-12  9.0
        4    1    3    3  500    0 -5.03757790662E+01 -3.82733371053E+01 -6.01854593645E+01  8.73327687448E+01  1.46817165330E+00  0.0000E+00  9.0
       -3    1    3    3    0  500  7.13608956417E+00  2.03220845433E+01  3.48682680419E+00  2.18199187811E+01  2.00000000000E-01  0.0000E+00  9.0
  3000022    1    3    3    0    0 -1.07998921139E+02 -8.42430099086E+00 -1.94463730420E+01  1.25351095883E+02  6.00000000000E+01  0.0000E+00  9.0
       -4    1    4    4    0  504  7.89771881404E+01  4.63489406888E+01  2.47605708756E+01  9.48728725591E+01  1.46817165330E+00  0.0000E+00  9.0
        3    1    4    4  504    0  5.59628303032E+01 -3.18706036316E+01  4.23875452307E+01  7.70994016972E+01  2.00000000000E-01  0.0000E+00  9.0
  3000022    1    4    4    0    0  1.62985921959E+01  1.18972164947E+01  3.14069016759E+01  7.06652767685E+01  6.00000000000E+01  0.0000E+00  9.0
</event>
<event>
10    1   3.4312288E-02   4.9880000E+02  -1.0000000E+00   9.3520000E-02
       11   -1    0    0    0    0  0.00000000000E+00  0.00000000000E+00  2.48934992000E+02  2.48934992000E+02  0.00000000000E+00  0.0000E+00  9.0
      -11   -1    0    0    0    0  0.00000000000E+00  0.00000000000E+00 -2.49864435100E+02  2.49864435100E+02  0.00000000000E+00  0.0000E+00  9.0
  3000025    2    1    2    0    0 -1.78817039267E+02  1.58247730535E+01  6.59422235801E+01  2.49382774709E+02  1.60054473528E+02  6.9357E-13  9.0
 -3000025    2    1    2    0    0  1.78817039267E+02 -1.58247730535E+01 -6.68716666851E+01  2.49416652399E+02  1.59721287605E+02  8.8811E-13  9.0
        4    1    3    3  500    0 -2.29763291072E+01  3.07062282693E+01  1.65544729144E+01  4.17970125158E+01  1.46817165330E+00  0.0000E+00  9.0
       -3    1    3    3    0  500 -4.00358507393E+01 -4.98429212398E+01  3.65293102403E-01  6.39324610912E+01  2.00000000000E-01  0.0000E+00  9.0
  3000022    1    3    3    0    0 -1.15804859419E+02  3.49614660239E+01  4.90224575631E+01  1.43653301101E+02  6.00000000000E+01  0.0000E+00  9.0
       -4    1    4    4    0  504  6.33235174912E+01  2.33451458182E+01  2.61482840456E+01  7.23930382514E+01  1.46817165330E+00  0.0000E+00  9.0
        3    1    4    4  504    0  7.02944613278E+01 -1.81377807481E+01 -4.38814409779E+01  8.48287171076E+01  2.00000000000E-01  0.0000E+00  9.0
  3000022    1    4    4    0    0  4.51990604482E+01 -2.10321381237E+01 -4.91385097529E+01  9.21948970398E+01  6.00000000000E+01  0.0000E+00  9.0
</event>
<event>
10    1   3.4312288E-02   5.0000000E+02  -1.0000000E+00   9.3490000E-02
       11   -1    0    0    0    0  0.00000000000E+00  0.00000000000E+00  2.49965141990E+02  2.49965141990E+02  0.00000000000E+00  0.0000E+00  9.0
      -11   -1    0    0    0    0  0.00000000000E+00  0.00000000000E+00 -2.49999999320E+02  2.49999999320E+02  0.00000000000E+00  0.0000E+00  9.0
  3000025    2    1    2    0    0 -1.28359183947E+02  1.15168637945E+02  8.46099993094E+01  2.49969448404E+02  1.59956174882E+02  2.9150E-13  9.0
 -3000025    2    1    2    0    0  1.28359183947E+02 -1.15168637945E+02 -8.46448566394E+01  2.49995692909E+02  1.59978746864E+02  1.3273E-12  9.0
        4    1    3    3  500    0 -8.92220782139E+01  8.44663004754E+01  4.25386587157E+01  1.30026259541E+02  1.46817165330E+00  0.0000E+00  9.0
       -3    1    3    3    0  500 -9.10194996270E+00  4.10276816279E+00  4.65667743317E+01  4.76254414298E+01  2.00000000000E-01  0.0000E+00  9.0
  3000022    1    3    3    0    0 -3.00351557689E+01  2.65995693071E+01 -4.49543373709E+00  7.23177474336E+01  6.00000000000E+01  0.0000E+00  9.0
       -4    1    4    4    0  504  7.99736093741E+01 -1.72869796915E+01 -2.78648543153E+00  8.18812426154E+01  1.46817165330E+00  0.0000E+00  9.0
        3    1    4    4  504    0 -1.47585825044E+01 -4.43333228329E+00 -2.24420125191E+01  2.72241458742E+01  2.00000000000E-01  0.0000E+00  9.0
  3000022    1    4    4    0    0  6.31441570765E+01 -9.34483259705E+01 -5.94163586880E+01  1.40890304419E+02  6.00000000000E+01  0.0000E+00  9.0
</event>
<event>
10    1   3.4312288E-02   4.9490000E+02  -1.0000000E+00   9.3600000E-02
       11   -1    0    0    0    0  0.00000000000E+00  0.00000000000E+00  2.44898933030E+02  2.44898933030E+02  0.00000000000E+00  0.0000E+00  9.0
      -11   -1    0    0    0    0  0.00000000000E+00  0.00000000000E+00 -2.49999998450E+02  2.49999998450E+02  0.00000000000E+00  0.0000E+00  9.0
  3000025    2    1    2    0    0  6.19507911047E+01  1.76975035765E+02 -2.79418345607E+01  2.47496466002E+02  1.59109053049E+02  8.5372E-13  9.0
 -3000025    2    1    2    0    0 -6.19507911047E+01 -1.76975035765E+02  2.28407691487E+01  2.47402465476E+02  1.59775515602E+02  1.3385E-13  9.0
        2    1    3    3  500    0  3.56640971913E+01  1.25160877340E+01 -1.22381214819E+00  3.78163721926E+01  3.00000000000E-03  0.0000E+00  9.0
       -1    1    3    3    0  500 -9.76153276828E+00  9.71560259865E+01 -5.01765880384E+01  1.09782835269E+02  5.00000000000E-03  0.0000E+00  9.0
  3000022    1    3    3    0    0  3.60482266805E+01  6.73029220434E+01  2.34585656263E+01  9.98972585391E+01  6.00000000000E+01  0.0000E+00  9.0
       -4    1    4    4    0  504 -7.67634526948E+01 -1.04210363180E+02  3.69122257935E+01  1.34599760047E+02  1.46817165330E+00  0.0000E+00  9.0
        3    1    4    4  504    0  5.48030562918E+00  5.98691800423E+00 -1.05302006033E+01  1.32966936388E+01  2.00000000000E-01  0.0000E+00  9.0
  3000022    1    4    4    0    0  9.33235595990E+00 -7.87515905886E+01 -3.54125604147E+00  9.95060117900E+01  6.00000000000E+01  0.0000E+00  9.0
</event>
<event>
10    1   3.4312288E-02   4.5870000E+02  -1.0000000E+00   9.4450000E-02
       11   -1    0    0    0    0  0.00000000000E+00  0.00000000000E+00  2.39685424860E+02  2.39685424860E+02  0.00000000000E+00  0.0000E+00  9.0
      -11   -1    0    0    0    0  0.00000000000E+00  0.00000000000E+00 -2.19483745210E+02  2.19483745210E+02  0.00000000000E+00  0.0000E+00  9.0
  3000025    2    1    2    0    0  2.85694939042E+01 -1.44333802773E+02  8.29519386835E+01  2.32976618982E+02  1.60463759946E+02  1.0273E-13  9.0
 -3000025    2    1    2    0    0 -2.85694939042E+01  1.44333802773E+02 -6.27502590325E+01  2.26192551080E+02  1.59928148086E+02  1.3745E-13  9.0
        2    1    3    3  500    0  2.26234465072E+01 -1.10595581034E+02  6.48850970595E+01  1.30204756847E+02  3.00000000000E-03  0.0000E+00  9.0
       -1    1    3    3    0  500 -5.77526437688E+00 -2.17111167069E+01 -1.97282125874E+01  2.98986398382E+01  5.00000000000E-03  0.0000E+00  9.0
  3000022    1    3    3    0    0  1.17213117736E+01 -1.20271050327E+01  3.77950542117E+01  7.28732222975E+01  6.00000000000E+01  0.0000E+00  9.0
       -2    1    4    4    0  504 -3.30902186967E+01  2.69391268546E+01 -5.46609219019E+01  6.93433163416E+01  3.00000000000E-03  0.0000E+00  9.0
        1    1    4    4  504    0 -2.08326233004E+01  5.87701022935E+01  1.88984418477E+01  6.51542342940E+01  5.00000000000E-03  0.0000E+00  9.0
  3000022    1    4    4    0    0  2.53533480929E+01  5.86245736255E+01 -2.69877789779E+01  9.16950004441E+01  6.00000000000E+01  0.0000E+00  9.0
</event>
<event>
10    1   3.4312288E-02   4.9640000E+02  -1.0000000E+00   9.3570000E-02
       11   -1    0    0    0    0  0.00000000000E+00  0.00000000000E+00  2.49519767990E+02  2.49519767990E+02  0.00000000000E+00  0.0000E+00  9.0
      -11   -1    0    0    0    0  0.00000000000E+00  0.00000000000E+00 -2.46838503140E+02  2.46838503140E+02  0.00000000000E+00  0.0000E+00  9.0
  3000025    2    1    2    0    0 -1.05596408988E+02 -2.33651053008E+01 -1.54474313371E+02  2.47135973655E+02  1.59741498197E+02  1.6103E-12  9.0
 -3000025    2    1    2    0    0  1.05596408988E+02  2.33651053008E+01  1.57155578211E+02  2.49222297481E+02  1.60366293410E+02  2.4684E-12  9.0
        2    1    3    3  500    0 -2.10986986252E+01 -3.96759478046E+01  1.14556024770E+00  4.49516210515E+01  3.00000000000E-03  0.0000E+00  9.0
       -1    1    3    3    0  500  2.43390940320E+00  1.27826259048E+01 -5.40824848995E+01  5.56258450535E+01  5.00000000000E-03  0.0000E+00  9.0
  3000022    1    3    3    0    0 -8.69316197664E+01  3.52821659998E+00 -1.01537388720E+02  1.46558507551E+02  6.00000000000E+01  0.0000E+00  9.0
       -2    1    4    4    0  504  4.35935380700E+01  1.56427801961E+01  6.29794693073E+01  7.81761261316E+01  3.00000000000E-03  0.0000E+00  9.0
        1    1    4    4  504    0  1.54568282293E+01 -3.56162857253E+01 -4.63949015365E+00  3.91018956275E+01  5.00000000000E-03  0.0000E+00  9.0
  3000022    1    4    4    0    0  4.65460426888E+01  4.33386108309E+01  9.88155990583E+01  1.31944275723E+02  6.00000000000E+01  0.0000E+00  9.0
</event>
<event>
10    1   3.4312288E-02   4.9990000E+02  -1.0000000E+00   9.3490000E-02
       11   -1    0    0    0    0  0.00000000000E+00  0.00000000000E+00  2.49949529770E+02  2.49949529770E+02  0.00000000000E+00  0.0000E+00  9.0
      -11   -1    0    0    0    0  0.00000000000E+00  0.00000000000E+00 -2.50000000000E+02  2.50000000000E+02  0.00000000000E+00  0.0000E+00  9.0
  3000025    2    1    2    0    0 -1.12493872989E+02  1.50904419258E+02  3.82849913574E+01  2.49959537499E+02  1.59959415514E+02  1.4010E-12  9.0
 -3000025    2    1    2    0    0  1.12493872989E+02 -1.50904419258E+02 -3.83354615894E+01  2.49989992259E+02  1.59994916802E+02  2.5697E-13  9.0
        4    1    3    3  500    0 -9.59940628911E+00 -5.62735867846E-01  4.35497816801E+01  4.46229121097E+01  1.46817165330E+00  0.0000E+00  9.0
       -3    1    3    3    0  500 -3.33749039508E+01  7.93617272821E+01  1.32923166717E+01  8.71142563157E+01  2.00000000000E-01  0.0000E+00  9.0
  3000022    1    3    3    0    0 -6.95195627495E+01  7.21054278451E+01 -1.85571069942E+01  1.18222369075E+02  6.00000000000E+01  0.0000E+00  9.0
       -2    1    4    4    0  504  5.50355165491E+01 -8.22645318294E+01 -2.42333896776E+01  1.01900041527E+02  3.00000000000E-03  0.0000E+00  9.0
        1    1    4    4  504    0 -2.38365774855E+01 -2.19324329638E+01  1.05766849366E+01  3.40746288488E+01  5.00000000000E-03  0.0000E+00  9.0
  3000022    1    4    4    0    0  8.12949339256E+01 -4.67074544653E+01 -2.46787568485E+01  1.14015321883E+02  6.00000000000E+01  0.0000E+00  9.0
</event>
<event>
10    1   3.4312288E-02   4.9650000E+02  -1.0000000E+00   9.3570000E-02
       11   -1    0    0    0    0  0.00000000000E+00  0.00000000000E+00  2.46528822480E+02  2.46528822480E+02  0.00000000000E+00  0.0000E+00  9.0
      -11   -1    0    0    0    0  0.00000000000E+00  0.00000000000E+00 -2.49999999920E+02  2.49999999920E+02  0.00000000000E+00  0.0000E+00  9.0
  3000025    2    1    2    0    0 -8.06867419573E+01  1.61838398026E+02  5.63475978003E+01  2.47895032917E+02  1.59921474992E+02  4.3578E-12  9.0
 -3000025    2    1    2    0    0  8.06867419573E+01 -1.61838398026E+02 -5.98187752413E+01  2.48633789487E+02  1.59807565529E+02  9.5572E-13  9.0
        4    1    3    3  500    0 -3.56091721950E+01  2.92289644668E+01 -1.86057145835E+01  4.97058713975E+01  1.46817165330E+00  0.0000E+00  9.0
       -3    1    3    3    0  500 -3.52479669522E+01  4.04698253394E+01  6.93019781705E+01  8.76528956487E+01  2.00000000000E-01  0.0000E+00  9.0
  3000022    1    3    3    0    0 -9.82960281021E+00  9.21396082186E+01  5.65133421324E+00  1.10536265870E+02  6.00000000000E+01  0.0000E+00  9.0
       -2    1    4    4    0  504  8.19243931345E+01 -8.80472347601E+01 -4.70265493878E+01  1.29133334564E+02  3.00000000000E-03  0.0000E+00  9.0
        1    1    4    4  504    0 -1.92670804406E+01 -2.80359750717E+01 -2.32711932690E+01  4.12163165274E+01  5.00000000000E-03  0.0000E+00  9.0
  3000022    1    4    4    0    0  1.80294292633E+01 -4.57551881927E+01  1.04789674157E+01  7.82841383947E+01  6.00000000000E+01  0.0000E+00  9.0
</event>
<event>
10    1   3.4312288E-02   4.9420000E+02  -1.0000000E+00   9.3620000E-02
       11   -1    0    0    0    0  0.00000000000E+00  0.00000000000E+00  2.44834774350E+02  2.44834774350E+02  0.00000000000E+00  0.0000E+00  9.0
      -11   -1    0    0    0    0  0.00000000000E+00  0.00000000000E+00 -2.49419670010E+02  2.49419670010E+02  0.00000000000E+00  0.0000E+00  9.0
  3000025    2    1    2    0    0  1.26807155753E+02 -1.14936579921E+01  1.36469474173E+02  2.45832552026E+02  1.59992397728E+02  1.9219E-12  9.0
 -3000025    2    1    2    0    0 -1.26807155753E+02  1.14936579921E+01 -1.41054369823E+02  2.48421892331E+02  1.60015444314E+02  3.5613E-12  9.0
        4    1    3    3  500    0  2.54787988861E+01 -3.11467504926E+01 -8.55142629013E+00  4.11651755556E+01  1.46817165330E+00  0.0000E+00  9.0
       -3    1    3    3    0  500  1.91570432095E+00  2.19999298589E+01  4.98206391028E+01  5.44958981709E+01  2.00000000000E-01  0.0000E+00  9.0
  3000022    1    3    3    0    0  9.94126525448E+01 -2.34683735821E+00  9.52002613596E+01  1.50171478299E+02  6.00000000000E+01  0.0000E+00  9.0
       -2    1    4    4    0  504 -8.95849487821E+01 -1.15834734566E+01 -2.37391557786E+01  9.33980055017E+01  3.00000000000E-03  0.0000E+00  9.0
        1    1    4    4  504    0 -9.32543644327E+00 -1.29274186006E+01 -5.49904233151E+01  5.72540705793E+01  5.00000000000E-03  0.0000E+00  9.0
  3000022    1    4    4    0    0 -2.78967705277E+01  3.60045500493E+01 -6.23247907291E+01  9.77698162500E+01  6.00000000000E+01  0.0000E+00  9.0
</event>
<event>
10    1   3.4312288E-02   4.9930000E+02  -1.0000000E+00   9.3510000E-02
       11   -1    0    0    0    0  0.00000000000E+00  0.00000000000E+00  2.49746109540E+02  2.49746109540E+02  0.00000000000E+00  0.0000E+00  9.0
      -11   -1    0    0    0    0  0.00000000000E+00  0.00000000000E+00 -2.49599605200E+02  2.49599605200E+02  0.00000000000E+00  0.0000E+00  9.0
  3000025    2    1    2    0    0  1.12722346703E+02 -1.32140300768E+02 -8.23023079502E+01  2.50199907613E+02  1.60184073311E+02  6.7056E-13  9.0
 -3000025    2    1    2    0    0 -1.12722346703E+02  1.32140300768E+02  8.24488122932E+01  2.49145807122E+02  1.58456429419E+02  4.8992E-12  9.0
        4    1    3    3  500    0  8.25215702496E+01 -9.78858002625E+01 -4.66366521687E+01  1.36266548731E+02  1.46817165330E+00  0.0000E+00  9.0
       -3    1    3    3    0  500  1.65841544324E+01 -1.24132370431E+00  1.90038607583E+01  2.52539459589E+01  2.00000000000E-01  0.0000E+00  9.0
  3000022    1    3    3    0    0  1.36166220216E+01 -3.30131768013E+01 -5.46695165399E+01  8.86794129237E+01  6.00000000000E+01  0.0000E+00  9.0
       -4    1    4    4    0  504 -3.19245762754E+01  6.38427067510E+01  5.63692055899E+01  9.09654475199E+01  1.46817165330E+00  0.0000E+00  9.0
        3    1    4    4  504    0  1.44188542204E+01 -4.77209580005E+00 -1.12484495325E+01  1.89008960697E+01  2.00000000000E-01  0.0000E+00  9.0
  3000022    1    4    4    0    0 -9.52166246486E+01  7.30696898166E+01  3.73280562363E+01  1.39279463532E+02  6.00000000000E+01  0.0000E+00  9.0
</event>
<event>
10    1   3.4312288E-02   4.9890000E+02  -1.0000000E+00   9.3520000E-02
       11   -1    0    0    0    0  0.00000000000E+00  0.00000000000E+00  2.48869005860E+02  2.48869005860E+02  0.00000000000E+00  0.0000E+00  9.0
      -11   -1    0    0    0    0  0.00000000000E+00  0.00000000000E+00 -2.50000000000E+02  2.50000000000E+02  0.00000000000E+00  0.0000E+00  9.0
  3000025    2    1    2    0    0  1.57136884879E+02 -1.08622957122E+02  3.61733495226E+00  2.49834446952E+02  1.60975831628E+02  3.1563E-13  9.0
 -3000025    2    1    2    0    0 -1.57136884879E+02  1.08622957122E+02 -4.74832909626E+00  2.49034558902E+02  1.59701964593E+02  3.8535E-12  9.0
        2    1    3    3  500    0 -7.14279836819E+00  9.16011012561E+00  1.64573710825E+01  2.01437895638E+01  3.00000000000E-03  0.0000E+00  9.0
       -1    1    3    3    0  500  5.04857253868E+01 -6.62329349629E+01 -3.31254172210E+01  8.96264661397E+01  5.00000000000E-03  0.0000E+00  9.0
  3000022    1    3    3    0    0  1.13793957860E+02 -5.15501322855E+01  2.02853810908E+01  1.40064191249E+02  6.00000000000E+01  0.0000E+00  9.0
       -4    1    4    4    0  504 -2.32783671544E+00 -4.06209598526E+00  1.84570232683E+01  1.90980806234E+01  1.46817165330E+00  0.0000E+00  9.0
        3    1    4    4  504    0 -1.01399568488E+02  4.37943290375E+01 -4.92809712939E+01  1.20948211549E+02  2.00000000000E-01  0.0000E+00  9.0
  3000022    1    4    4    0    0 -5.34094796757E+01  6.88907240699E+01  2.60756189293E+01  1.08988266729E+02  6.00000000000E+01  0.0000E+00  9.0
</event>
<event>
10    1   3.4312288E-02   4.8520000E+02  -1.0000000E+00   9.3820000E-02
       11   -1    0    0    0    0  0.00000000000E+00  0.00000000000E+00  2.35436510820E+02  2.35436510820E+02  0.00000000000E+00  0.0000E+00  9.0
      -11   -1    0    0    0    0  0.00000000000E+00  0.00000000000E+00 -2.49999981940E+02  2.49999981940E+02  0.00000000000E+00  0.0000E+00  9.0
  3000025    2    1    2    0    0  4.69014770205E+01 -1.23646787471E+02 -1.33005326609E+02  2.46505932547E+02  1.59957748408E+02  6.2679E-12  9.0
 -3000025    2    1    2    0    0 -4.69014770205E+01  1.23646787471E+02  1.18441855489E+02  2.38930560210E+02  1.59909545906E+02  9.1376E-13  9.0
        4    1    3    3  500    0  1.61312885475E+01 -5.48992885672E+01 -4.94494663196E+01  7.56409651094E+01  1.46817165330E+00  0.0000E+00  9.0
       -3    1    3    3    0  500  4.59818420593E+00  4.69931002082E+00  2.41257363259E+01  2.50063585100E+01  2.00000000000E-01  0.0000E+00  9.0
  3000022    1    3    3    0    0  2.61720042669E+01 -7.34468089240E+01 -1.07681596616E+02  1.45858608927E+02  6.00000000000E+01  0.0000E+00  9.0
       -4    1    4    4    0  504 -2.92297462186E+01  6.67317508298E+01  5.42062155559E+00  7.30687573376E+01  1.46817165330E+00  0.0000E+00  9.0
        3    1    4    4  504    0  1.39516299286E+01 -1.58167197494E+01  1.27929185510E+01  2.46681042310E+01  2.00000000000E-01  0.0000E+00  9.0
  3000022    1    4    4    0    0 -3.16233607301E+01  7.27317563912E+01  1.00228315383E+02  1.41193698642E+02  6.00000000000E+01  0.0000E+00  9.0
</event>
<event>
10    1   3.4312288E-02   4.5970000E+02  -1.0000000E+00   9.4430000E-02
       11   -1    0    0    0    0  0.00000000000E+00  0.00000000000E+00  2.47442966110E+02  2.47442966110E+02  0.00000000000E+00  0.0000E+00  9.0
      -11   -1    0    0    0    0  0.00000000000E+00  0.00000000000E+00 -2.13532773230E+02  2.13532773230E+02  0.00000000000E+00  0.0000E+00  9.0
  3000025    2    1    2    0    0  1.47013779466E+02  1.54261817657E+01  9.11671313420E+01  2.36146133484E+02  1.60007912572E+02  7.7266E-14  9.0
 -3000025    2    1    2    0    0 -1.47013779466E+02 -1.54261817657E+01 -5.72569384570E+01  2.24829605857E+02  1.59433297123E+02  2.3650E-12  9.0
        2    1    3    3  500    0  2.52564896401E+01  3.50902849503E+01  7.99670570110E+00  4.39677799975E+01  3.00000000000E-03  0.0000E+00  9.0
       -1    1    3    3    0  500  1.06250096895E+02 -2.99133075213E+01  5.06727332162E+01  1.21456226574E+02  5.00000000000E-03  0.0000E+00  9.0
  3000022    1    3    3    0    0  1.55071929319E+01  1.02492043369E+01  3.24976924247E+01  7.07221269130E+01  6.00000000000E+01  0.0000E+00  9.0
      -14    1    4    4    0    0 -7.90222265362E+01 -3.75711761178E+01 -3.53425884952E+01  9.43673890873E+01  0.00000000000E+00  0.0000E+00  9.0
       13    1    4    4    0    0 -7.26323367270E+00 -7.43347517824E-01  2.80142871225E+01  2.89502777947E+01  1.05700000000E-01  0.0000E+00  9.0
  3000022    1    4    4    0    0 -6.07283192573E+01  2.28883418700E+01 -4.99286370843E+01  1.01511938975E+02  6.00000000000E+01  0.0000E+00  9.0
</event>
<event>
10    1   3.4312288E-02   4.8550000E+02  -1.0000000E+00   9.3820000E-02
       11   -1    0    0    0    0  0.00000000000E+00  0.00000000000E+00  2.35718669390E+02  2.35718669390E+02  0.00000000000E+00  0.0000E+00  9.0
      -11   -1    0    0    0    0  0.00000000000E+00  0.00000000000E+00 -2.49998541860E+02  2.49998541860E+02  0.00000000000E+00  0.0000E+00  9.0
  3000025    2    1    2    0    0 -1.85459923317E+01  1.58273496896E+02 -9.60728478276E+01  2.45429390352E+02  1.60034808425E+02  1.6772E-13  9.0
 -3000025    2    1    2    0    0  1.85459923317E+01 -1.58273496896E+02  8.17929753576E+01  2.40287820894E+02  1.60167700867E+02  1.3055E-13  9.0
        4    1    3    3  500    0  2.69473832017E+01  9.29720457049E+01 -4.99243484475E+01  1.08924555725E+02  1.46817165330E+00  0.0000E+00  9.0
       -3    1    3    3    0  500 -4.26854959414E+01  4.83952820064E+01 -3.39782968281E+01  7.29295518948E+01  2.00000000000E-01  0.0000E+00  9.0
  3000022    1    3    3    0    0 -2.80787959235E+00  1.69061691838E+01 -1.21702025519E+01  6.35752827318E+01  6.00000000000E+01  0.0000E+00  9.0
       -2    1    4    4    0  504  3.20771467701E+01 -9.94557310588E+01  1.77231317531E+01  1.05992901618E+02  3.00000000000E-03  0.0000E+00  9.0
        1    1    4    4  504    0 -3.11904931023E+01 -3.72133805180E+01  4.29762471145E+01  6.48431984914E+01  5.00000000000E-03  0.0000E+00  9.0
  3000022    1    4    4    0    0  1.76593386639E+01 -2.16043853188E+01  2.10935964900E+01  6.94517207845E+01  6.00000000000E+01  0.0000E+00  9.0
</event>
<event>
10    1   3.4312288E-02   4.9440000E+02  -1.0000000E+00   9.3620000E-02
       11   -1    0    0    0    0  0.00000000000E+00  0.00000000000E+00  2.49999999730E+02  2.49999999730E+02  0.00000000000E+00  0.0000E+00  9.0
      -11   -1    0    0    0    0  0.00000000000E+00  0.00000000000E+00 -2.44386250040E+02  2.44386250040E+02  0.00000000000E+00  0.0000E+00  9.0
  3000025    2    1    2    0    0  6.90556517941E+01  1.65547027905E+02 -5.49161993468E+01  2.46372759313E+02  1.59716142226E+02  2.6354E-13  9.0
 -3000025    2    1    2    0    0 -6.90556517941E+01 -1.65547027905E+02  6.05299490308E+01  2.48013490462E+02  1.60225825723E+02  4.3779E-12  9.0
        4    1    3    3  500    0  3.99760285751E+01  7.35212350913E+00  1.18854493628E+01  4.23740016436E+01  1.46817165330E+00  0.0000E+00  9.0
       -3    1    3    3    0  500  9.36490165674E+00  9.68325462431E+01 -6.96112051040E+00  9.75332794165E+01  2.00000000000E-01  0.0000E+00  9.0
  3000022    1    3    3    0    0  1.97147215621E+01  6.13623581518E+01 -5.98405281990E+01  1.06465478252E+02  6.00000000000E+01  0.0000E+00  9.0
       -2    1    4    4    0  504 -7.55447139821E+01 -5.63529539348E+01  1.61957936652E+00  9.42617752545E+01  3.00000000000E-03  0.0000E+00  9.0
        1    1    4    4  504    0  1.51939447881E+01 -2.86858440627E+00  2.00799737494E+01  2.53434430474E+01  5.00000000000E-03  0.0000E+00  9.0
  3000022    1    4    4    0    0 -8.70488259903E+00 -1.06325489564E+02  3.88303959150E+01  1.28408272160E+02  6.00000000000E+01  0.0000E+00  9.0
</event>
<event>
10    1   3.4312288E-02   4.3490000E+02  -1.0000000E+00   9.5060000E-02
       11   -1    0    0    0    0  0.00000000000E+00  0.00000000000E+00  2.31521369770E+02  2.31521369770E+02  0.00000000000E+00  0.0000E+00  9.0
      -11   -1    0    0    0    0  0.00000000000E+00  0.00000000000E+00 -2.04207573430E+02  2.04207573430E+02  0.00000000000E+00  0.0000E+00  9.0
  3000025    2    1    2    0    0  1.05483700995E+02 -1.01207338923E+02  2.94544324054E+01  2.18995321315E+02  1.60379707389E+02  2.2583E-13  9.0
 -3000025    2    1    2    0    0 -1.05483700995E+02  1.01207338923E+02 -2.14063605902E+00  2.16733621883E+02  1.59997324679E+02  3.6045E-13  9.0
        4    1    3    3  500    0  1.27761007317E+01 -3.42266038436E+01 -2.20086111205E+01  4.26757970286E+01  1.46817165330E+00  0.0000E+00  9.0
       -3    1    3    3    0  500  8.63111900424E+01 -4.75966080182E+01  5.49479130165E+01  1.12846673705E+02  2.00000000000E-01  0.0000E+00  9.0
  3000022    1    3    3    0    0  6.39641022110E+00 -1.93841270615E+01 -3.48486949055E+00  6.34728505821E+01  6.00000000000E+01  0.0000E+00  9.0
      -14    1    4    4    0    0 -7.65034416036E+01  7.86868424106E+01  2.77858111431E+01  1.13209748019E+02  0.00000000000E+00  0.0000E+00  9.0
       13    1    4    4    0    0 -2.19916778370E+01  5.90948106721E+00 -3.38009298312E+01  4.07562251750E+01  1.05700000000E-01  0.0000E+00  9.0
  3000022    1    4    4    0    0 -6.98858155501E+00  1.66110154449E+01  3.87448262891E+00  6.27676486887E+01  6.00000000000E+01  0.0000E+00  9.0
</event>
<event>
10    1   3.4312288E-02   4.9740000E+02  -1.0000000E+00   9.3550000E-02
       11   -1    0    0    0    0  0.00000000000E+00  0.00000000000E+00  2.47358072410E+02  2.47358072410E+02  0.00000000000E+00  0.0000E+00  9.0
      -11   -1    0    0    0    0  0.00000000000E+00  0.00000000000E+00 -2.50000000000E+02  2.50000000000E+02  0.00000000000E+00  0.0000E+00  9.0
  3000025    2    1    2    0    0 -8.09463746622E+00  1.14858849271E+02  1.50275126760E+02  2.47886892788E+02  1.60022559291E+02  1.4689E-12  9.0
 -3000025    2    1    2    0    0  8.09463746622E+00 -1.14858849271E+02 -1.52917054340E+02  2.49471179620E+02  1.59981766278E+02  2.8117E-13  9.0
        2    1    3    3  500    0 -3.01507990795E+01  3.36146674349E+01  2.36852092013E+01  5.09902509878E+01  3.00000000000E-03  0.0000E+00  9.0
       -1    1    3    3    0  500  5.23728303290E+01  6.11436615031E+01  6.34584635033E+01  1.02510669268E+02  5.00000000000E-03  0.0000E+00  9.0
  3000022    1    3    3    0    0 -3.03166687157E+01  2.01005203335E+01  6.31314540552E+01  9.43859725321E+01  6.00000000000E+01  0.0000E+00  9.0
       -4    1    4    4    0  504  6.32297083439E+01 -3.93080396941E+01 -4.01585448155E+01  8.46048595032E+01  1.46817165330E+00  0.0000E+00  9.0
        3    1    4    4  504    0 -1.58045923441E+01 -3.02944233818E+01 -4.37806101663E+01  5.55366460432E+01  2.00000000000E-01  0.0000E+00  9.0
  3000022    1    4    4    0    0 -3.93304785336E+01 -4.52563861957E+01 -6.89778993585E+01  1.09329674074E+02  6.00000000000E+01  0.0000E+00  9.0
</event>
<event>
10    1   3.4312288E-02   4.6900000E+02  -1.0000000E+00   9.4200000E-02
       11   -1    0    0    0    0  0.00000000000E+00  0.00000000000E+00  2.20002913780E+02  2.20002913780E+02  0.00000000000E+00  0.0000E+00  9.0
      -11   -1    0    0    0    0  0.00000000000E+00  0.00000000000E+00 -2.49999999790E+02  2.49999999790E+02  0.00000000000E+00  0.0000E+00  9.0
  3000025    2    1    2    0    0  1.87087534120E+01 -1.31663084623E+02 -1.23549147591E+02  2.41953129597E+02  1.59974184620E+02  7.1816E-13  9.0
 -3000025    2    1    2    0    0 -1.87087534120E+01  1.31663084623E+02  9.35520615914E+01  2.28049783968E+02  1.59904754254E+02  1.2301E-12  9.0
        4    1    3    3  500    0  1.60973115490E+01 -1.21680871806E+01  1.85875838953E+01  2.74743441744E+01  1.46817165330E+00  0.0000E+00  9.0
       -3    1    3    3    0  500 -3.55319181304E+01 -4.85603029887E+01 -5.46397505756E+01  8.12783032263E+01  2.00000000000E-01  0.0000E+00  9.0
  3000022    1    3    3    0    0  3.81433599934E+01 -7.09346944535E+01 -8.74969809123E+01  1.33200482197E+02  6.00000000000E+01  0.0000E+00  9.0
       -4    1    4    4    0  504  5.78526383491E+00 -8.78197137634E+00  4.31702227643E+01  4.44569000316E+01  1.46817165330E+00  0.0000E+00  9.0
        3    1    4    4  504    0  1.11271944388E+01  8.54279719451E+01  3.68922164097E+01  9.37167459868E+01  2.00000000000E-01  0.0000E+00  9.0
  3000022    1    4    4    0    0 -3.56212116858E+01  5.50170840553E+01  1.34896224183E+01  8.98761379505E+01  6.00000000000E+01  0.0000E+00  9.0
</event>
<event>
10    1   3.4312288E-02   5.0000000E+02  -1.0000000E+00   9.3490000E-02
       11   -1    0    0    0    0  0.00000000000E+00  0.00000000000E+00  2.50000000000E+02  2.50000000000E+02  0.00000000000E+00  0.0000E+00  9.0
      -11   -1    0    0    0    0  0.00000000000E+00  0.00000000000E+00 -2.50000000000E+02  2.50000000000E+02  0.00000000000E+00  0.0000E+00  9.0
  3000025    2    1    2    0    0 -8.22737945000E+01  1.15678966026E+02 -1.29094975216E+02  2.50053412768E+02  1.60345240555E+02  4.7791E-12  9.0
 -3000025    2    1    2    0    0  8.22737945000E+01 -1.15678966026E+02  1.29094975216E+02  2.49946587233E+02  1.60178598450E+02  1.8501E-12  9.0
        4    1    3    3  500    0  1.97109075182E+01  5.67989927172E+01 -6.43727129677E+01  8.80945353112E+01  1.46817165330E+00  0.0000E+00  9.0
       -3    1    3    3    0  500 -2.34454109905E+01 -1.24540568667E+01 -1.27605065752E+01  2.94560920186E+01  2.00000000000E-01  0.0000E+00  9.0
  3000022    1    3    3    0    0 -7.85392910277E+01  7.13340301756E+01 -5.19617556729E+01  1.32502785438E+02  6.00000000000E+01  0.0000E+00  9.0
       -2    1    4    4    0  504  2.69951456265E+00 -7.82977980043E+01  3.92257945076E+01  8.76156122786E+01  3.00000000000E-03  0.0000E+00  9.0
        1    1    4    4  504    0  1.64833034842E+01  1.94370156696E+00  5.99733422690E+01  6.22276391763E+01  5.00000000000E-03  0.0000E+00  9.0
  3000022    1    4    4    0    0  6.30909764532E+01 -3.93248695884E+01  2.98958384389E+01  1.00103335778E+02  6.00000000000E+01  0.0000E+00  9.0
</event>
<event>
10    1   3.4312288E-02   3.9340000E+02  -1.0000000E+00   9.6220000E-02
       11   -1    0    0    0    0  0.00000000000E+00  0.00000000000E+00  1.54756082480E+02  1.54756082480E+02  0.00000000000E+00  0.0000E+00  9.0
      -11   -1    0    0    0    0  0.00000000000E+00  0.00000000000E+00 -2.49999280240E+02  2.49999280240E+02  0.00000000000E+00  0.0000E+00  9.0
  3000025    2    1    2    0    0 -9.82999846469E+01  5.28186847193E+01 -7.43297200899E+01  2.08790359409E+02  1.60049387554E+02  9.8319E-15  9.0
 -3000025    2    1    2    0    0  9.82999846469E+01 -5.28186847193E+01 -2.09134776751E+01  1.95965003307E+02  1.59725416060E+02  1.2666E-13  9.0
        2    1    3    3  500    0 -1.72706413385E+01  5.76228795707E+01  1.57299567363E+01  6.21779932949E+01  3.00000000000E-03  0.0000E+00  9.0
       -1    1    3    3    0  500 -2.82750341797E+01 -1.85828513458E+01 -1.89956231064E+01  3.88024953347E+01  5.00000000000E-03  0.0000E+00  9.0
  3000022    1    3    3    0    0 -5.27543091288E+01  1.37786564944E+01 -7.10640537195E+01  1.07809870780E+02  6.00000000000E+01  0.0000E+00  9.0
       -4    1    4    4    0  504 -2.60235820692E+01 -1.14588389169E+01  5.75798529575E-01  2.84783933006E+01  1.46817165330E+00  0.0000E+00  9.0
        3    1    4    4  504    0  6.24243178898E+01 -4.67861868247E+01  1.77513661477E+00  7.80316208444E+01  2.00000000000E-01  0.0000E+00  9.0
  3000022    1    4    4    0    0  6.18992488263E+01  5.42634102259E+00 -2.32644128198E+01  8.94549891621E+01  6.00000000000E+01  0.0000E+00  9.0
</event>
<event>
10    1   3.4312288E-02   4.8990000E+02  -1.0000000E+00   9.3720000E-02
       11   -1    0    0    0    0  0.00000000000E+00  0.00000000000E+00  2.49947220850E+02  2.49947220850E+02  0.00000000000E+00  0.0000E+00  9.0
      -11   -1    0    0    0    0  0.00000000000E+00  0.00000000000E+00 -2.40088887730E+02  2.40088887730E+02  0.00000000000E+00  0.0000E+00  9.0
  3000025    2    1    2    0    0  8.26881237804E+01  6.33714348726E+01  1.58367392719E+02  2.48148607945E+02  1.60138177761E+02  1.7972E-13  9.0
 -3000025    2    1    2    0    0 -8.26881237804E+01 -6.33714348726E+01 -1.48509059599E+02  2.41887500637E+02  1.60004242474E+02  3.2807E-13  9.0
        4    1    3    3  500    0 -1.10717215566E+01  3.83047931233E+01  1.96522732065E+01  4.44770453676E+01  1.46817165330E+00  0.0000E+00  9.0
       -3    1    3    3    0  500  2.74389949492E+01 -2.42534637372E+01  7.45408397064E+01  8.30512235383E+01  2.00000000000E-01  0.0000E+00  9.0
  3000022    1    3    3    0    0  6.63208503883E+01  4.93201054866E+01  6.41742798062E+01  1.20620339040E+02  6.00000000000E+01  0.0000E+00  9.0
       -2    1    4    4    0  504  2.86472108825E+01 -3.99752652808E+00 -4.81879982938E+01  5.62025453005E+01  3.00000000000E-03  0.0000E+00  9.0
        1    1    4    4  504    0 -3.40466055128E+01 -3.62829252988E+01 -1.04556504584E+01  5.08423314443E+01  5.00000000000E-03  0.0000E+00  9.0
  3000022    1    4    4    0    0 -7.72887291500E+01 -2.30909830451E+01 -8.98654108461E+01  1.34842623892E+02  6.00000000000E+01  0.0000E+00  9.0
</event>
<event>
10    1   3.4312288E-02   4.6000000E+02  -1.0000000E+00   9.4420000E-02
       11   -1    0    0    0    0  0.00000000000E+00  0.00000000000E+00  2.20335403500E+02  2.20335403500E+02  0.00000000000E+00  0.0000E+00  9.0
      -11   -1    0    0    0    0  0.00000000000E+00  0.00000000000E+00 -2.40114711650E+02  2.40114711650E+02  0.00000000000E+00  0.0000E+00  9.0
  3000025    2    1    2    0    0 -1.26487197390E+02 -1.07075058293E+01 -1.16295715193E+02  2.34836826831E+02  1.59718440009E+02  4.1529E-14  9.0
 -3000025    2    1    2    0    0  1.26487197390E+02  1.07075058293E+01  9.65164070443E+01  2.25613288319E+02  1.59600367333E+02  2.0589E-12  9.0
        4    1    3    3  500    0  1.14455239717E+01  3.15654748651E+01 -1.16490896669E+01  3.55701565995E+01  1.46817165330E+00  0.0000E+00  9.0
       -3    1    3    3    0  500 -4.92587418239E+01 -2.27169936760E+01 -1.02681812644E+01  5.52083417087E+01  2.00000000000E-01  0.0000E+00  9.0
  3000022    1    3    3    0    0 -8.86739795380E+01 -1.95559870184E+01 -9.43784442632E+01  1.44058328523E+02  6.00000000000E+01  0.0000E+00  9.0
      -14    1    4    4    0    0  3.81826709603E+01  3.69696723878E+00  7.56936760845E+01  8.48593926894E+01  0.00000000000E+00  0.0000E+00  9.0
       13    1    4    4    0    0  6.54806780179E+01 -2.05315195748E+01  3.13389286995E+00  6.86956690537E+01  1.05700000000E-01  0.0000E+00  9.0
  3000022    1    4    4    0    0  2.28238484118E+01  2.75420581650E+01  1.76888380899E+01  7.20582265759E+01  6.00000000000E+01  0.0000E+00  9.0
</event>
<event>
10    1   3.4312288E-02   4.6060000E+02  -1.0000000E+00   9.4410000E-02
       11   -1    0    0    0    0  0.00000000000E+00  0.00000000000E+00  2.23867856110E+02  2.23867856110E+02  0.00000000000E+00  0.0000E+00  9.0
      -11   -1    0    0    0    0  0.00000000000E+00  0.00000000000E+00 -2.36873700960E+02  2.36873700960E+02  0.00000000000E+00  0.0000E+00  9.0
  3000025    2    1    2    0    0 -5.67861495726E+01  8.95152412477E+01 -1.33781944791E+02  2.33950260732E+02  1.59992095260E+02  5.0338E-13  9.0
 -3000025    2    1    2    0    0  5.67861495726E+01 -8.95152412477E+01  1.20776099941E+02  2.26791296340E+02  1.60030561393E+02  2.4053E-13  9.0
        4    1    3    3  500    0  1.16868443177E+00  6.67486970794E+01 -1.73757757226E+01  6.89987499529E+01  1.46817165330E+00  0.0000E+00  9.0
       -3    1    3    3    0  500 -4.23005789808E+01  2.71108424783E+01 -7.49599103482E+01  9.02405946423E+01  2.00000000000E-01  0.0000E+00  9.0
  3000022    1    3    3    0    0 -1.56542550235E+01 -4.34429831009E+00 -4.14462587209E+01  7.47109161376E+01  6.00000000000E+01  0.0000E+00  9.0
       -2    1    4    4    0  504 -3.30557231471E+00  2.34630857141E+01 -1.55250301600E+00  2.37455990485E+01  3.00000000000E-03  0.0000E+00  9.0
        1    1    4    4  504    0  4.03587971356E-02 -6.24296714225E+01  3.75060409302E+01  7.28297235612E+01  5.00000000000E-03  0.0000E+00  9.0
  3000022    1    4    4    0    0  6.00513630902E+01 -5.05486555388E+01  8.48225620271E+01  1.30215973731E+02  6.00000000000E+01  0.0000E+00  9.0
</event>
<event>
10    1   3.4312288E-02   5.0000000E+02  -1.0000000E+00   9.3490000E-02
       11   -1    0    0    0    0  0.00000000000E+00  0.00000000000E+00  2.49995785850E+02  2.49995785850E+02  0.00000000000E+00  0.0000E+00  9.0
      -11   -1    0    0    0    0  0.00000000000E+00  0.00000000000E+00 -2.49999999920E+02  2.49999999920E+02  0.00000000000E+00  0.0000E+00  9.0
  3000025    2    1    2    0    0 -1.08102798468E+02  1.30028591435E+02 -9.07687454391E+01  2.49905545405E+02  1.60063008995E+02  6.0221E-13  9.0
 -3000025    2    1    2    0    0  1.08102798468E+02 -1.30028591435E+02  9.07645313601E+01  2.50090240370E+02  1.60353604725E+02  3.3126E-12  9.0
        4    1    3    3  500    0 -4.03241912948E+00  9.95993936222E+00 -5.36506120948E+01  5.47357698611E+01  1.46817165330E+00  0.0000E+00  9.0
       -3    1    3    3    0  500 -6.74425952706E+01  2.50989252425E+01 -2.33230621821E+00  7.19995788700E+01  2.00000000000E-01  0.0000E+00  9.0
  3000022    1    3    3    0    0 -3.66277840679E+01  9.49697268302E+01 -3.47858271259E+01  1.23170196674E+02  6.00000000000E+01  0.0000E+00  9.0
       -2    1    4    4    0  504  6.04378807734E+00  1.81950415157E+01  3.58190083796E+01  4.06274326087E+01  3.00000000000E-03  0.0000E+00  9.0
        1    1    4    4  504    0  6.23620225243E+01 -6.32712827938E+01  3.89299891865E+01  9.69939233291E+01  5.00000000000E-03  0.0000E+00  9.0
  3000022    1    4    4    0    0  3.96969878669E+01 -8.49523501570E+01  1.60155337944E+01  1.12468884433E+02  6.00000000000E+01  0.0000E+00  9.0
</event>
<event>
10    1   3.4312288E-02   4.9850000E+02  -1.0000000E+00   9.3520000E-02
       11   -1    0    0    0    0  0.00000000000E+00  0.00000000000E+00  2.48461219650E+02  2.48461219650E+02  0.00000000000E+00  0.0000E+00  9.0
      -11   -1    0    0    0    0  0.00000000000E+00  0.00000000000E+00 -2.49996102860E+02  2.49996102860E+02  0.00000000000E+00  0.0000E+00  9.0
  3000025    2    1    2    0    0 -1.78937458127E+02  6.29896839909E+01  2.22268677346E+01  2.49156830441E+02  1.59996182130E+02  1.3459E-13  9.0
 -3000025    2    1    2    0    0  1.78937458127E+02 -6.29896839909E+01 -2.37617509456E+01  2.49300492075E+02  1.59999376033E+02  3.6431E-12  9.0
       14    1    3    3    0    0 -8.03606761208E+01  6.65050246221E+01 -8.29086695763E+00  1.04639834869E+02  0.00000000000E+00  0.0000E+00  9.0
      -13    1    3    3    0    0 -1.20401928040E+01  4.22968087695E-01  3.70293240885E+01  3.89400457075E+01  1.05700000000E-01  0.0000E+00  9.0
  3000022    1    3    3    0    0 -8.65365892021E+01 -3.93830871780E+00 -6.51158939633E+00  1.05576949865E+02  6.00000000000E+01  0.0000E+00  9.0
       -2    1    4    4    0  500 -3.38067643336E+00 -9.36581683755E+00  1.75084265378E+01  2.01418099239E+01  3.00000000000E-03  0.0000E+00  9.0
        1    1    4    4  500    0  7.35214760779E+01 -3.82103378346E+01  2.62479107288E+01  8.69159951029E+01  5.00000000000E-03  0.0000E+00  9.0
  3000022    1    4    4    0    0  1.08796658482E+02 -1.54135293192E+01 -6.75180882122E+01  1.42242687048E+02  6.00000000000E+01  0.0000E+00  9.0
</event>
<event>
10    1   3.4312288E-02   5.0000000E+02  -1.0000000E+00   9.3490000E-02
       11   -1    0    0    0    0  0.00000000000E+00  0.00000000000E+00  2.50000000000E+02  2.50000000000E+02  0.00000000000E+00  0.0000E+00  9.0
      -11   -1    0    0    0    0  0.00000000000E+00  0.00000000000E+00 -2.49999964480E+02  2.49999964480E+02  0.00000000000E+00  0.0000E+00  9.0
  3000025    2    1    2    0    0  7.23403530959E+00  1.91861419180E+02  4.16488534972E+00  2.49999763188E+02  1.60060613168E+02  7.9165E-13  9.0
 -3000025    2    1    2    0    0 -7.23403530959E+00 -1.91861419180E+02 -4.16484982942E+00  2.50000201290E+02  1.60061298366E+02  8.4339E-13  9.0
        4    1    3    3  500    0 -2.65975455262E+01  7.68250707805E+01 -1.61878245817E+01  8.29079135013E+01  1.46817165330E+00  0.0000E+00  9.0
       -3    1    3    3    0  500  4.68930035161E+00 -9.44939210287E+00  2.35713480126E+01  2.58249684614E+01  2.00000000000E-01  0.0000E+00  9.0
  3000022    1    3    3    0    0  2.91422804838E+01  1.24485740502E+02 -3.21863808026E+00  1.41266881226E+02  6.00000000000E+01  0.0000E+00  9.0
       -2    1    4    4    0  504 -1.64774162973E+00 -3.57153321954E+01  4.26486896098E+01  5.56525897038E+01  3.00000000000E-03  0.0000E+00  9.0
        1    1    4    4  504    0  1.93662676127E+01 -1.02181899775E+02 -2.18886496945E+01  1.06279376989E+02  5.00000000000E-03  0.0000E+00  9.0
  3000022    1    4    4    0    0 -2.49525612924E+01 -5.39641872098E+01 -2.49248897447E+01  8.80682345971E+01  6.00000000000E+01  0.0000E+00  9.0
</event>
<event>
10    1   3.4312288E-02   4.8900000E+02  -1.0000000E+00   9.3740000E-02
       11   -1    0    0    0    0  0.00000000000E+00  0.00000000000E+00  2.39144277510E+02  2.39144277510E+02  0.00000000000E+00  0.0000E+00  9.0
      -11   -1    0    0    0    0  0.00000000000E+00  0.00000000000E+00 -2.49986629130E+02  2.49986629130E+02  0.00000000000E+00  0.0000E+00  9.0
  3000025    2    1    2    0    0  1.80069609950E+02  1.78978528652E+01  3.84527092074E+01  2.44731328118E+02  1.60216773630E+02  1.7103E-12  9.0
 -3000025    2    1    2    0    0 -1.80069609950E+02 -1.78978528652E+01 -4.92950608264E+01  2.44399578517E+02  1.56702754899E+02  2.1324E-12  9.0
       14    1    3    3    0    0  9.15151924138E+01 -3.71884910096E+01  2.46288150744E+01  1.01806644371E+02  0.00000000000E+00  0.0000E+00  9.0
      -13    1    3    3    0    0  3.76303447143E+01  3.40319804494E+01  3.12884128076E+01  5.96086779348E+01  1.05700000000E-01  0.0000E+00  9.0
  3000022    1    3    3    0    0  5.09240728208E+01  2.10543634254E+01 -1.74645186746E+01  8.33160058119E+01  6.00000000000E+01  0.0000E+00  9.0
       -2    1    4    4    0  500 -2.92553893628E+01 -3.05107778261E+01  2.69760843773E+01  5.01447355926E+01  3.00000000000E-03  0.0000E+00  9.0
        1    1    4    4  500    0 -1.18622005474E+01 -6.87261270466E+00  1.17773150127E+01  1.80734551518E+01  5.00000000000E-03  0.0000E+00  9.0
  3000022    1    4    4    0    0 -1.38952020039E+02  1.94855376651E+01 -8.80484602164E+01  1.76181387772E+02  6.00000000000E+01  0.0000E+00  9.0
</event>
<event>
10    1   3.4312288E-02   4.8260000E+02  -1.0000000E+00   9.3880000E-02
       11   -1    0    0    0    0  0.00000000000E+00  0.00000000000E+00  2.32925575880E+02  2.32925575880E+02  0.00000000000E+00  0.0000E+00  9.0
      -11   -1    0    0    0    0  0.00000000000E+00  0.00000000000E+00 -2.49999950200E+02  2.49999950200E+02  0.00000000000E+00  0.0000E+00  9.0
  3000025    2    1    2    0    0 -1.24634872987E+02  1.14517070579E+02 -7.16221317181E+01  2.43729388241E+02  1.60082084950E+02  1.4492E-12  9.0
 -3000025    2    1    2    0    0  1.24634872987E+02 -1.14517070579E+02  5.45477573881E+01  2.39196137843E+02  1.59972883654E+02  5.7492E-12  9.0
        2    1    3    3  500    0 -6.91506655339E+01  9.06045822601E+01 -7.16335011088E+01  1.34619327589E+02  3.00000000000E-03  0.0000E+00  9.0
       -1    1    3    3    0  500 -4.29121380421E+01 -3.88615707208E-01  3.62840879377E+00  4.30670174134E+01  5.00000000000E-03  0.0000E+00  9.0
  3000022    1    3    3    0    0 -1.25720694107E+01  2.43011040265E+01 -3.61703940302E+00  6.60430432386E+01  6.00000000000E+01  0.0000E+00  9.0
       -4    1    4    4    0  504  7.06309090305E+01 -1.57159777598E+01  4.62500654491E+01  8.58891224165E+01  1.46817165330E+00  0.0000E+00  9.0
        3    1    4    4  504    0 -9.65507235984E-01  2.33405810973E+00  2.25750513975E+01  2.27167994463E+01  2.00000000000E-01  0.0000E+00  9.0
  3000022    1    4    4    0    0  5.49694711921E+01 -1.01135150929E+02 -1.42773594596E+01  1.30590215980E+02  6.00000000000E+01  0.0000E+00  9.0
</event>
<event>
10    1   3.4312288E-02   4.5770000E+02  -1.0000000E+00   9.4480000E-02
       11   -1    0    0    0    0  0.00000000000E+00  0.00000000000E+00  2.30407403150E+02  2.30407403150E+02  0.00000000000E+00  0.0000E+00  9.0
      -11   -1    0    0    0    0  0.00000000000E+00  0.00000000000E+00 -2.27333284890E+02  2.27333284890E+02  0.00000000000E+00  0.0000E+00  9.0
  3000025    2    1    2    0    0  1.34051243520E+02 -5.61815558493E+01 -7.36198023780E+01  2.28412415950E+02  1.60082020698E+02  3.7243E-13  9.0
 -3000025    2    1    2    0    0 -1.34051243520E+02  5.61815558493E+01  7.66939206380E+01  2.29328272093E+02  1.59948103494E+02  6.0424E-13  9.0
        2    1    3    3  500    0  5.04422060044E+01 -1.95652237057E+01  1.94963670660E+01  5.75093250093E+01  3.00000000000E-03  0.0000E+00  9.0
       -1    1    3    3    0  500 -1.82697941195E+01  2.87480383986E+00 -1.48076696105E+01  2.36921290428E+01  5.00000000000E-03  0.0000E+00  9.0
  3000022    1    3    3    0    0  1.01878831635E+02 -3.94911359831E+01 -7.83084998328E+01  1.47210961897E+02  6.00000000000E+01  0.0000E+00  9.0
       -2    1    4    4    0  504 -3.56389019396E+01 -6.12175066333E+00 -1.77295401784E+01  4.02733629907E+01  3.00000000000E-03  0.0000E+00  9.0
        1    1    4    4  504    0 -3.14327887371E+00  8.44337215898E+00  5.84858824026E+01  5.91757484186E+01  5.00000000000E-03  0.0000E+00  9.0
  3000022    1    4    4    0    0 -9.52690627081E+01  5.38599343537E+01  3.59375784149E+01  1.29879160685E+02  6.00000000000E+01  0.0000E+00  9.0
</event>
<event>
10    1   3.4312288E-02   4.8830000E+02  -1.0000000E+00   9.3750000E-02
       11   -1    0    0    0    0  0.00000000000E+00  0.00000000000E+00  2.38450799870E+02  2.38450799870E+02  0.00000000000E+00  0.0000E+00  9.0
      -11   -1    0    0    0    0  0.00000000000E+00  0.00000000000E+00 -2.49991299060E+02  2.49991299060E+02  0.00000000000E+00  0.0000E+00  9.0
  3000025    2    1    2    0    0 -1.76492359124E+02  4.84497432174E+01  1.65176062113E+01  2.43734565001E+02  1.60114885049E+02  6.0306E-13  9.0
 -3000025    2    1    2    0    0  1.76492359124E+02 -4.84497432174E+01 -2.80581054053E+01  2.44707533931E+02  1.59992466812E+02  9.9834E-13  9.0
        2    1    3    3  500    0 -7.36947642968E+01  6.44543166036E+01 -2.63821772600E+01  1.01396728249E+02  3.00000000000E-03  0.0000E+00  9.0
       -1    1    3    3    0  500 -9.69939767622E-01 -1.69043079209E+01  9.94283501171E+00  1.96355902001E+01  5.00000000000E-03  0.0000E+00  9.0
  3000022    1    3    3    0    0 -1.01827655060E+02  8.99734534651E-01  3.29569484586E+01  1.22702246552E+02  6.00000000000E+01  0.0000E+00  9.0
       -4    1    4    4    0  504  7.21090243600E+01 -3.24359954810E+01  1.54110161340E+01  8.05695981328E+01  1.46817165330E+00  0.0000E+00  9.0
        3    1    4    4  504    0 -1.53736540678E+01 -1.41131773834E+01 -1.84605648186E+01  2.78632996731E+01  2.00000000000E-01  0.0000E+00  9.0
  3000022    1    4    4    0    0  1.19756988832E+02 -1.90057035273E+00 -2.50085567207E+01  1.36274636125E+02  6.00000000000E+01  0.0000E+00  9.0
</event>
<event>
10    1   3.4312288E-02   4.6530000E+02  -1.0000000E+00   9.4290000E-02
       11   -1    0    0    0    0  0.00000000000E+00  0.00000000000E+00  2.38789084090E+02  2.38789084090E+02  0.00000000000E+00  0.0000E+00  9.0
      -11   -1    0    0    0    0  0.00000000000E+00  0.00000000000E+00 -2.26698958960E+02  2.26698958960E+02  0.00000000000E+00  0.0000E+00  9.0
  3000025    2    1    2    0    0 -1.02240018975E+02 -1.04842158703E+02  9.02217578503E+01  2.34915556821E+02  1.60001417261E+02  1.7566E-12  9.0
 -3000025    2    1    2    0    0  1.02240018975E+02  1.04842158703E+02 -7.81316327203E+01  2.30572486240E+02  1.60044430262E+02  8.7969E-13  9.0
       14    1    3    3    0    0 -3.87055626870E+01 -2.01965501929E+00 -1.20572727662E+01  4.05903611202E+01  0.00000000000E+00  0.0000E+00  9.0
      -13    1    3    3    0    0  1.53393937916E+01 -5.03370887654E+01  2.59633020664E+01  5.86789888627E+01  1.05700000000E-01  0.0000E+00  9.0
  3000022    1    3    3    0    0 -7.88738500791E+01 -5.24854149184E+01  7.63157285499E+01  1.35646206838E+02  6.00000000000E+01  0.0000E+00  9.0
      -14    1    4    4    0    0  6.20703664508E+01  6.89970501217E+01 -2.72845074992E+01  9.67355553367E+01  0.00000000000E+00  0.0000E+00  9.0
       13    1    4    4    0    0  1.92549295473E+01 -2.75692206887E+01 -1.87416422790E+01  3.84977216086E+01  1.05700000000E-01  0.0000E+00  9.0
  3000022    1    4    4    0    0  2.09147229760E+01  6.34143292689E+01 -3.21054829419E+01  9.53392092936E+01  6.00000000000E+01  0.0000E+00  9.0
</event>
<event>
10    1   3.4312288E-02   4.6140000E+02  -1.0000000E+00   9.4390000E-02
       11   -1    0    0    0    0  0.00000000000E+00  0.00000000000E+00  2.12942588380E+02  2.12942588380E+02  0.00000000000E+00  0.0000E+00  9.0
      -11   -1    0    0    0    0  0.00000000000E+00  0.00000000000E+00 -2.49965525690E+02  2.49965525690E+02  0.00000000000E+00  0.0000E+00  9.0
  3000025    2    1    2    0    0 -5.89219997941E+01 -1.04368342863E+02  9.70845080724E+01  2.22137528689E+02  1.59859710036E+02  1.0969E-13  9.0
 -3000025    2    1    2    0    0  5.89219997941E+01  1.04368342863E+02 -1.34107445378E+02  2.40770585382E+02  1.60065970235E+02  3.7754E-12  9.0
        4    1    3    3  500    0  1.25759161633E+01  1.32555262794E+01  3.11200021687E+00  1.85930825213E+01  1.46817165330E+00  0.0000E+00  9.0
       -3    1    3    3    0  500 -1.39890653716E+01 -9.27471458990E+01  4.94719495076E+01  1.06043579770E+02  2.00000000000E-01  0.0000E+00  9.0
  3000022    1    3    3    0    0 -5.75088505858E+01 -2.48767232437E+01  4.45005583480E+01  9.75008663978E+01  6.00000000000E+01  0.0000E+00  9.0
       -2    1    4    4    0  504 -2.36180570629E+00 -1.73672557542E+01  1.61960924418E+01  2.38644739730E+01  3.00000000000E-03  0.0000E+00  9.0
        1    1    4    4  504    0  2.51326959523E+01  3.32248650823E+01 -5.61479112262E+01  6.99151773625E+01  5.00000000000E-03  0.0000E+00  9.0
  3000022    1    4    4    0    0  3.61511095488E+01  8.85107335355E+01 -9.41556265928E+01  1.46990934046E+02  6.00000000000E+01  0.0000E+00  9.0
</event>
<event>
10    1   3.4312288E-02   4.9230000E+02  -1.0000000E+00   9.3660000E-02
       11   -1    0    0    0    0  0.00000000000E+00  0.00000000000E+00  2.42312490270E+02  2.42312490270E+02  0.00000000000E+00  0.0000E+00  9.0
      -11   -1    0    0    0    0  0.00000000000E+00  0.00000000000E+00 -2.49999999600E+02  2.49999999600E+02  0.00000000000E+00  0.0000E+00  9.0
  3000025    2    1    2    0    0  1.64004645185E+02 -8.69913957715E+00  8.58947814920E+01  2.44881696063E+02  1.60049782591E+02  3.0895E-12  9.0
 -3000025    2    1    2    0    0 -1.64004645185E+02  8.69913957715E+00 -9.35822908140E+01  2.47430793809E+02  1.59659493609E+02  9.1790E-13  9.0
        4    1    3    3  500    0  1.00625372224E+01  2.05532790618E+01  4.11293022795E+01  4.70899879969E+01  1.46817165330E+00  0.0000E+00  9.0
       -3    1    3    3    0  500  1.16181493996E+02 -1.87151513114E+01  4.53551873025E+01  1.26117125923E+02  2.00000000000E-01  0.0000E+00  9.0
  3000022    1    3    3    0    0  3.77606139677E+01 -1.05372673279E+01 -5.89708089546E-01  7.16745821445E+01  6.00000000000E+01  0.0000E+00  9.0
      -14    1    4    4    0    0 -5.16675024646E+01  4.03164561005E+01 -3.90390114106E+01  7.62823167933E+01  0.00000000000E+00  0.0000E+00  9.0
       13    1    4    4    0    0 -1.79044805888E+01 -3.40917137520E+01 -4.44124560124E+01  5.87817386035E+01  1.05700000000E-01  0.0000E+00  9.0
  3000022    1    4    4    0    0 -9.44326621301E+01  2.47439722936E+00 -1.01308233897E+01  1.12366738411E+02  6.00000000000E+01  0.0000E+00  9.0
</event>
<event>
10    1   3.4312288E-02   4.9840000E+02  -1.0000000E+00   9.3530000E-02
       11   -1    0    0    0    0  0.00000000000E+00  0.00000000000E+00  2.49295369770E+02  2.49295369770E+02  0.00000000000E+00  0.0000E+00  9.0
      -11   -1    0    0    0    0  0.00000000000E+00  0.00000000000E+00 -2.49074307760E+02  2.49074307760E+02  0.00000000000E+00  0.0000E+00  9.0
  3000025    2    1    2    0    0  1.84142062838E+01 -1.89473422225E+02  1.63689527763E+01  2.49181864115E+02  1.59951236525E+02  3.0166E-12  9.0
 -3000025    2    1    2    0    0 -1.84142062838E+01  1.89473422225E+02 -1.61478907733E+01  2.49187813410E+02  1.59982971760E+02  1.6279E-12  9.0
        4    1    3    3  500    0  3.77462014676E+01 -2.02383896239E+01 -5.71641191388E+00  4.32342576319E+01  1.46817165330E+00  0.0000E+00  9.0
       -3    1    3    3    0  500 -4.21377232967E+01 -3.08932874467E+01  6.11050138647E+00  5.26057141486E+01  2.00000000000E-01  0.0000E+00  9.0
  3000022    1    3    3    0    0  2.28057281118E+01 -1.38341745154E+02  1.59748633037E+01  1.53341892334E+02  6.00000000000E+01  0.0000E+00  9.0
       -4    1    4    4    0  504  4.78105002045E+00  2.03046454851E+01 -3.50908129582E+01  4.08492074543E+01  1.46817165330E+00  0.0000E+00  9.0
        3    1    4    4  504    0  2.85555944907E+01  8.18321589616E+01  2.51667254469E+01  9.02514724908E+01  2.00000000000E-01  0.0000E+00  9.0
  3000022    1    4    4    0    0 -5.17508507952E+01  8.73366177789E+01 -6.22380326182E+00  1.18087133466E+02  6.00000000000E+01  0.0000E+00  9.0
</event>
<event>
10    1   3.4312288E-02   4.6510000E+02  -1.0000000E+00   9.4300000E-02
       11   -1    0    0    0    0  0.00000000000E+00  0.00000000000E+00  2.48193353490E+02  2.48193353490E+02  0.00000000000E+00  0.0000E+00  9.0
      -11   -1    0    0    0    0  0.00000000000E+00  0.00000000000E+00 -2.17894245810E+02  2.17894245810E+02  0.00000000000E+00  0.0000E+00  9.0
  3000025    2    1    2    0    0 -5.43943679358E+01  1.43560458280E+02  8.52522249463E+01  2.37645019583E+02  1.60121394666E+02  1.1762E-12  9.0
 -3000025    2    1    2    0    0  5.43943679358E+01 -1.43560458280E+02 -5.49531172563E+01  2.28442579713E+02  1.59993170745E+02  1.6418E-12  9.0
        2    1    3    3  500    0  3.07541908175E+01  7.12031104743E+01  3.89714720143E+01  8.68013757611E+01  3.00000000000E-03  0.0000E+00  9.0
       -1    1    3    3    0  500 -4.69224585932E+01  5.06192957879E+01  2.58013317799E+01  7.36867625365E+01  5.00000000000E-03  0.0000E+00  9.0
  3000022    1    3    3    0    0 -3.82261001601E+01  2.17380520174E+01  2.04794211520E+01  7.71568812853E+01  6.00000000000E+01  0.0000E+00  9.0
      -14    1    4    4    0    0  2.58634926661E+01 -7.51376020060E+01 -7.52506503881E+00  7.98198352036E+01  0.00000000000E+00  0.0000E+00  9.0
       13    1    4    4    0    0  3.55317873162E+01 -9.46965406688E-01 -4.58887122397E+01  5.80447218692E+01  1.05700000000E-01  0.0000E+00  9.0
  3000022    1    4    4    0    0 -7.00091204691E+00 -6.74758908667E+01 -1.53933997797E+00  9.05780226397E+01  6.00000000000E+01  0.0000E+00  9.0
</event>
<event>
10    1   3.4312288E-02   4.8840000E+02  -1.0000000E+00   9.3750000E-02
       11   -1    0    0    0    0  0.00000000000E+00  0.00000000000E+00  2.49935848090E+02  2.49935848090E+02  0.00000000000E+00  0.0000E+00  9.0
      -11   -1    0    0    0    0  0.00000000000E+00  0.00000000000E+00 -2.38609258120E+02  2.38609258120E+02  0.00000000000E+00  0.0000E+00  9.0
  3000025    2    1    2    0    0 -9.91869310710E+01 -1.49773522937E+02 -3.73324286278E+01  2.42942263602E+02  1.59239058489E+02  1.4026E-13  9.0
 -3000025    2    1    2    0    0  9.91869310710E+01  1.49773522937E+02  4.86590185998E+01  2.45602842619E+02  1.60258855427E+02  3.8751E-13  9.0
        2    1    3    3  500    0  2.25378995748E+01 -3.98287867941E+01 -2.92017464817E+01  5.42865653851E+01  3.00000000000E-03  0.0000E+00  9.0
       -1    1    3    3    0  500 -3.92760290177E+01 -6.36349394225E+00  1.28202903145E+01  4.18026360329E+01  5.00000000000E-03  0.0000E+00  9.0
  3000022    1    3    3    0    0 -8.24488016268E+01 -1.03581242200E+02 -2.09509724598E+01  1.46853062183E+02  6.00000000000E+01  0.0000E+00  9.0
       -4    1    4    4    0  504 -7.50484976757E+00 -2.05039673538E+00 -9.81533593089E+00  1.26104418735E+01  1.46817165330E+00  0.0000E+00  9.0
        3    1    4    4  504    0  6.39008960544E+01  1.35230680253E+02  4.55783510318E+01  1.56358842030E+02  2.00000000000E-01  0.0000E+00  9.0
  3000022    1    4    4    0    0  4.27908847842E+01  1.65932394196E+01  1.28960034983E+01  7.66335587147E+01  6.00000000000E+01  0.0000E+00  9.0
</event>
<event>
10    1   3.4312288E-02   4.4700000E+02  -1.0000000E+00   9.4750000E-02
       11   -1    0    0    0    0  0.00000000000E+00  0.00000000000E+00  1.99852332900E+02  1.99852332900E+02  0.00000000000E+00  0.0000E+00  9.0
      -11   -1    0    0    0    0  0.00000000000E+00  0.00000000000E+00 -2.49999999970E+02  2.49999999970E+02  0.00000000000E+00  0.0000E+00  9.0
  3000025    2    1    2    0    0  1.56429516097E+02 -2.24499031185E+00 -2.37560282571E+01  2.24627841465E+02  1.59430501457E+02  2.3605E-12  9.0
 -3000025    2    1    2    0    0 -1.56429516097E+02  2.24499031185E+00 -2.63916388059E+01  2.25224491409E+02  1.59857184523E+02  8.0588E-13  9.0
        2    1    3    3  500    0  4.03610863947E-01  2.86168926940E+01 -2.53953557290E+01  3.82624300168E+01  3.00000000000E-03  0.0000E+00  9.0
       -1    1    3    3    0  500  3.56233957714E+01 -3.02579633280E+01  1.95295939094E+01  5.06554610513E+01  5.00000000000E-03  0.0000E+00  9.0
  3000022    1    3    3    0    0  1.20402509461E+02 -6.03919678581E-01 -1.78902664385E+01  1.35709950397E+02  6.00000000000E+01  0.0000E+00  9.0
       -4    1    4    4    0  504 -6.79875307855E+01 -3.82773059562E+01 -3.16811749974E+01  8.42217838258E+01  1.46817165330E+00  0.0000E+00  9.0
        3    1    4    4  504    0 -2.97423808478E+01  3.95965027886E+01 -1.98842140374E+01  5.33658525601E+01  2.00000000000E-01  0.0000E+00  9.0
  3000022    1    4    4    0    0 -5.86996044639E+01  9.25793478869E-01  2.51737502289E+01  8.76368550233E+01  6.00000000000E+01  0.0000E+00  9.0
</event>
<event>
10    1   3.4312288E-02   4.9970000E+02  -1.0000000E+00   9.3500000E-02
       11   -1    0    0    0    0  0.00000000000E+00  0.00000000000E+00  2.49753035310E+02  2.49753035310E+02  0.00000000000E+00  0.0000E+00  9.0
      -11   -1    0    0    0    0  0.00000000000E+00  0.00000000000E+00 -2.49975365950E+02  2.49975365950E+02  0.00000000000E+00  0.0000E+00  9.0
  3000025    2    1    2    0    0  1.67700799538E+01 -1.32510750834E+02  1.37845195464E+02  2.49837250126E+02  1.59928168156E+02  1.2172E-12  9.0
 -3000025    2    1    2    0    0 -1.67700799538E+01  1.32510750834E+02 -1.38067526094E+02  2.49891151135E+02  1.59820558708E+02  6.2014E-13  9.0
        4    1    3    3  500    0 -2.21943353178E+01 -2.31168832419E+01  7.57128131349E+01  8.22287322766E+01  1.46817165330E+00  0.0000E+00  9.0
       -3    1    3    3    0  500  4.55086252663E+01 -2.81150893513E+01  3.03288688363E+01  6.14928736339E+01  2.00000000000E-01  0.0000E+00  9.0
  3000022    1    3    3    0    0 -6.54420999470E+00 -8.12787782416E+01  3.18035134930E+01  1.06115644216E+02  6.00000000000E+01  0.0000E+00  9.0
      -14    1    4    4    0    0 -2.61444983213E+00 -1.34486237711E+01  3.25191934890E+00  1.40810443047E+01  0.00000000000E+00  0.0000E+00  9.0
       13    1    4    4    0    0 -4.36460698583E+01  9.48492021301E+01 -7.27170405470E+01  1.27236510944E+02  1.05700000000E-01  0.0000E+00  9.0
  3000022    1    4    4    0    0  2.94904397368E+01  5.11101724753E+01 -6.86024048949E+01  1.08573595886E+02  6.00000000000E+01  0.0000E+00  9.0
</event>
<event>
10    1   3.4312288E-02   4.4480000E+02  -1.0000000E+00   9.4800000E-02
       11   -1    0    0    0    0  0.00000000000E+00  0.00000000000E+00  2.04388022470E+02  2.04388022470E+02  0.00000000000E+00  0.0000E+00  9.0
      -11   -1    0    0    0    0  0.00000000000E+00  0.00000000000E+00 -2.41946846020E+02  2.41946846020E+02  0.00000000000E+00  0.0000E+00  9.0
  3000025    2    1    2    0    0 -1.38280112801E+02  5.76934740446E+01 -5.45760677755E+01  2.25855881429E+02  1.59945007608E+02  2.1800E-12  9.0
 -3000025    2    1    2    0    0  1.38280112801E+02 -5.76934740446E+01  1.70172442285E+01  2.20478987067E+02  1.60846108419E+02  9.1211E-13  9.0
       14    1    3    3    0    0 -1.05201276074E+01 -8.07805237200E+00  2.93467423336E+01  3.22049577022E+01  0.00000000000E+00  0.0000E+00  9.0
      -13    1    3    3    0    0 -3.63623471821E+01  5.37673426722E+00 -5.38128820876E+01  6.51687579676E+01  1.05700000000E-01  0.0000E+00  9.0
  3000022    1    3    3    0    0 -9.13976380115E+01  6.03947921494E+01 -3.01099280215E+01  1.28482165760E+02  6.00000000000E+01  0.0000E+00  9.0
       -2    1    4    4    0  500  6.66255776728E+01  2.13547509305E+01  1.99583364742E+01  7.27552622933E+01  3.00000000000E-03  0.0000E+00  9.0
        1    1    4    4  500    0 -1.51294135670E+01 -2.37496391485E+01  3.79687916988E+00  2.84140956392E+01  5.00000000000E-03  0.0000E+00  9.0
  3000022    1    4    4    0    0  8.67839486949E+01 -5.52985858267E+01 -6.73797141612E+00  1.19309629135E+02  6.00000000000E+01  0.0000E+00  9.0
</event>
<event>
10    1   3.4312288E-02   4.5390000E+02  -1.0000000E+00   9.4570000E-02
       11   -1    0    0    0    0  0.00000000000E+00  0.00000000000E+00  2.49155181660E+02  2.49155181660E+02  0.00000000000E+00  0.0000E+00  9.0
      -11   -1    0    0    0    0  0.00000000000E+00  0.00000000000E+00 -2.06709699580E+02  2.06709699580E+02  0.00000000000E+00  0.0000E+00  9.0
  3000025    2    1    2    0    0 -8.39090407770E+01  9.06738714115E+01 -8.25462435546E+01  2.18212782906E+02  1.59813823613E+02  1.5404E-12  9.0
 -3000025    2    1    2    0    0  8.39090407770E+01 -9.06738714115E+01  1.24991725631E+02  2.37652098340E+02  1.59978468203E+02  3.3533E-13  9.0
        4    1    3    3  500    0 -3.06262778499E+01 -5.73981193793E+00  2.37471866089E+01  3.92045754455E+01  1.46817165330E+00  0.0000E+00  9.0
       -3    1    3    3    0  500 -1.68093870537E+01  1.43224527298E+01 -5.53119028693E+01  5.95578268941E+01  2.00000000000E-01  0.0000E+00  9.0
  3000022    1    3    3    0    0 -3.64733758737E+01  8.20912306200E+01 -5.09815272942E+01  1.19450380567E+02  6.00000000000E+01  0.0000E+00  9.0
       -4    1    4    4    0  504  5.42267240322E+01 -8.10211391875E+01  5.30670590026E+01  1.11010048526E+02  1.46817165330E+00  0.0000E+00  9.0
        3    1    4    4  504    0  3.24822177180E+00  6.72353570544E+00 -1.48700903789E+01  1.66408072201E+01  2.00000000000E-01  0.0000E+00  9.0
  3000022    1    4    4    0    0  2.64340949729E+01 -1.63762679296E+01  8.67947570078E+01  1.10001242595E+02  6.00000000000E+01  0.0000E+00  9.0
</event>
<event>
10    1   3.4312288E-02   5.0000000E+02  -1.0000000E+00   9.3490000E-02
       11   -1    0    0    0    0  0.00000000000E+00  0.00000000000E+00  2.49999659110E+02  2.49999659110E+02  0.00000000000E+00  0.0000E+00  9.0
      -11   -1    0    0    0    0  0.00000000000E+00  0.00000000000E+00 -2.49999993970E+02  2.49999993970E+02  0.00000000000E+00  0.0000E+00  9.0
  3000025    2    1    2    0    0 -1.53329421952E+02  1.12033728709E+02  2.93326754568E+01  2.50036530860E+02  1.59988727449E+02  6.0833E-13  9.0
 -3000025    2    1    2    0    0  1.53329421952E+02 -1.12033728709E+02 -2.93330103108E+01  2.49963122215E+02  1.59873915849E+02  5.6946E-12  9.0
        2    1    3    3  500    0 -2.42671646410E+01  7.46468613856E+00  4.33763291442E+01  5.02605487224E+01  3.00000000000E-03  0.0000E+00  9.0
       -1    1    3    3    0  500 -1.01177981805E+02  6.00192832990E+01  5.08671164696E+00  1.17750469341E+02  5.00000000000E-03  0.0000E+00  9.0
  3000022    1    3    3    0    0 -2.78842755049E+01  4.45497592715E+01 -1.91303653345E+01  8.20255127958E+01  6.00000000000E+01  0.0000E+00  9.0
       -4    1    4    4    0  504  1.85032561664E+01  2.52232382056E+01  8.21617136267E+00  3.23765846593E+01  1.46817165330E+00  0.0000E+00  9.0
        3    1    4    4  504    0  4.29583603918E+01 -6.73153252550E+01  6.72923513965E+00  8.01379831747E+01  2.00000000000E-01  0.0000E+00  9.0
  3000022    1    4    4    0    0  9.18678053934E+01 -6.99416416594E+01 -4.42784168141E+01  1.37448554381E+02  6.00000000000E+01  0.0000E+00  9.0
</event>
<event>
10    1   3.4312288E-02   4.9970000E+02  -1.0000000E+00   9.3500000E-02
       11   -1    0    0    0    0  0.00000000000E+00  0.00000000000E+00  2.50000000000E+02  2.50000000000E+02  0.00000000000E+00  0.0000E+00  9.0
      -11   -1    0    0    0    0  0.00000000000E+00  0.00000000000E+00 -2.49740711520E+02  2.49740711520E+02  0.00000000000E+00  0.0000E+00  9.0
  3000025    2    1    2    0    0 -6.09861345549E+01  1.71935915149E+02  5.84746821410E+01  2.50133072821E+02  1.60829096066E+02  5.6882E-13  9.0
 -3000025    2    1    2    0    0  6.09861345549E+01 -1.71935915149E+02 -5.82153936660E+01  2.49607638705E+02  1.60105195775E+02  1.3910E-12  9.0
        2    1    3    3  500    0 -1.65612580334E+01  8.59946534984E+01  6.12642038108E+01  1.06876837414E+02  3.00000000000E-03  0.0000E+00  9.0
       -1    1    3    3    0  500  1.78088959723E+01 -3.22371040327E+00 -5.87137863741E+00  1.90268808957E+01  5.00000000000E-03  0.0000E+00  9.0
  3000022    1    3    3    0    0 -6.22337724941E+01  8.91649720543E+01  3.08185696876E+00  1.24229354513E+02  6.00000000000E+01  0.0000E+00  9.0
       -4    1    4    4    0  504  1.86627352560E+01 -2.35479844568E+00  9.09991659227E+00  2.09477152201E+01  1.46817165330E+00  0.0000E+00  9.0
        3    1    4    4  504    0 -1.68427306699E+00  1.57202918248E+01  4.52620937727E+00  1.64466082262E+01  2.00000000000E-01  0.0000E+00  9.0
  3000022    1    4    4    0    0  4.40076723667E+01 -1.85301408528E+02 -7.18415196356E+01  2.12213315259E+02  6.00000000000E+01  0.0000E+00  9.0
</event>
<event>
10    1   3.4312288E-02   4.8640000E+02  -1.0000000E+00   9.3800000E-02
       11   -1    0    0    0    0  0.00000000000E+00  0.00000000000E+00  2.48867710620E+02  2.48867710620E+02  0.00000000000E+00  0.0000E+00  9.0
      -11   -1    0    0    0    0  0.00000000000E+00  0.00000000000E+00 -2.37652051660E+02  2.37652051660E+02  0.00000000000E+00  0.0000E+00  9.0
  3000025    2    1    2    0    0  1.51801621141E+02 -6.75333062600E+01  8.26272743257E+01  2.44982982655E+02  1.59952854593E+02  2.1940E-13  9.0
 -3000025    2    1    2    0    0 -1.51801621141E+02  6.75333062600E+01 -7.14116153567E+01  2.41536779626E+02  1.60112202748E+02  1.8857E-12  9.0
        2    1    3    3  500    0 -7.29968143331E+00 -1.13673762161E+01 -9.82995205413E+00  1.67072007665E+01  3.00000000000E-03  0.0000E+00  9.0
       -1    1    3    3    0  500  8.20084491815E+01  5.25821102263E+00  7.55869776759E+01  1.11653149259E+02  5.00000000000E-03  0.0000E+00  9.0
  3000022    1    3    3    0    0  7.70928533924E+01 -6.14241410660E+01  1.68702487038E+01  1.16622632629E+02  6.00000000000E+01  0.0000E+00  9.0
       -4    1    4    4    0  504 -7.24738254646E+01  7.24678534014E+00 -1.16960035810E+01  7.37829472373E+01  1.46817165330E+00  0.0000E+00  9.0
        3    1    4    4  504    0 -2.66180014055E+01  7.10649430842E+01 -3.40639720282E+01  8.31813580361E+01  2.00000000000E-01  0.0000E+00  9.0
  3000022    1    4    4    0    0 -5.27097942709E+01 -1.07784221644E+01 -2.56516397475E+01  8.45724743529E+01  6.00000000000E+01  0.0000E+00  9.0
</event>
<event>
10    1   3.4312288E-02   4.9010000E+02  -1.0000000E+00   9.3710000E-02
       11   -1    0    0    0    0  0.00000000000E+00  0.00000000000E+00  2.40185078170E+02  2.40185078170E+02  0.00000000000E+00  0.0000E+00  9.0
      -11   -1    0    0    0    0  0.00000000000E+00  0.00000000000E+00 -2.50000000000E+02  2.50000000000E+02  0.00000000000E+00  0.0000E+00  9.0
  3000025    2    1    2    0    0  1.62128224071E+02 -5.48508419220E+01  6.66639340535E+01  2.43662934537E+02  1.60104246240E+02  9.9904E-13  9.0
 -3000025    2    1    2    0    0 -1.62128224071E+02  5.48508419220E+01 -7.64788558875E+01  2.46522143629E+02  1.60093647600E+02  7.4073E-13  9.0
        2    1    3    3  500    0  1.00781258701E+02 -6.10806826689E+01  2.88603206857E+01  1.21328603469E+02  3.00000000000E-03  0.0000E+00  9.0
       -1    1    3    3    0  500 -1.11987557846E+01 -2.72579692465E+00 -1.09856348319E+01  1.59225091508E+01  5.00000000000E-03  0.0000E+00  9.0
  3000022    1    3    3    0    0  7.25457211544E+01  8.95563767192E+00  4.87892481996E+01  1.06411821918E+02  6.00000000000E+01  0.0000E+00  9.0
       -4    1    4    4    0  504 -8.53125994961E+01  3.90917495154E+01 -3.69159477992E+01  1.00853097339E+02  1.46817165330E+00  0.0000E+00  9.0
        3    1    4    4  504    0  1.81062621483E+01  1.49060942605E+01 -2.17125548038E+01  3.19609669941E+01  2.00000000000E-01  0.0000E+00  9.0
  3000022    1    4    4    0    0 -9.49218867228E+01  8.52998145906E-01 -1.78503532846E+01  1.13708079296E+02  6.00000000000E+01  0.0000E+00  9.0
</event>
<event>
10    1   3.4312288E-02   4.9810000E+02  -1.0000000E+00   9.3530000E-02
       11   -1    0    0    0    0  0.00000000000E+00  0.00000000000E+00  2.49837584800E+02  2.49837584800E+02  0.00000000000E+00  0.0000E+00  9.0
      -11   -1    0    0    0    0  0.00000000000E+00  0.00000000000E+00 -2.48272060590E+02  2.48272060590E+02  0.00000000000E+00  0.0000E+00  9.0
  3000025    2    1    2    0    0 -1.85664274009E+02  4.39692839588E+01 -5.62841291410E+00  2.49001446838E+02  1.59892216573E+02  7.7210E-13  9.0
 -3000025    2    1    2    0    0  1.85664274009E+02 -4.39692839588E+01  7.19393712590E+00  2.49108198548E+02  1.59995691434E+02  1.9131E-13  9.0
        2    1    3    3  500    0 -7.47276895611E+01  2.32228707567E+01 -1.44022112215E+01  7.95672860565E+01  3.00000000000E-03  0.0000E+00  9.0
       -1    1    3    3    0  500  2.11633791627E+01  1.00851909151E+01 -2.17369567354E+00  2.35441005617E+01  5.00000000000E-03  0.0000E+00  9.0
  3000022    1    3    3    0    0 -1.32099963610E+02  1.06612222870E+01  1.09474939813E+01  1.45890060220E+02  6.00000000000E+01  0.0000E+00  9.0
       -4    1    4    4    0  504  1.09932539367E+02 -1.34071216343E+01  3.55491204966E+01  1.16322008315E+02  1.46817165330E+00  0.0000E+00  9.0
        3    1    4    4  504    0  3.46539734948E+01 -4.36257516280E+01 -1.51366545181E+01  5.77344125638E+01  2.00000000000E-01  0.0000E+00  9.0
  3000022    1    4    4    0    0  4.10777611459E+01  1.30635893038E+01 -1.32185288516E+01  7.50517776689E+01  6.00000000000E+01  0.0000E+00  9.0
</event>
<event>
10    1   3.4312288E-02   4.9970000E+02  -1.0000000E+00   9.3500000E-02
       11   -1    0    0    0    0  0.00000000000E+00  0.00000000000E+00  2.49999995910E+02  2.49999995910E+02  0.00000000000E+00  0.0000E+00  9.0
      -11   -1    0    0    0    0  0.00000000000E+00  0.00000000000E+00 -2.49749863200E+02  2.49749863200E+02  0.00000000000E+00  0.0000E+00  9.0
  3000025    2    1    2    0    0  1.71331644014E+02 -6.78266969604E+01 -5.30540907287E+01  2.49804764921E+02  1.60102126697E+02  2.5941E-12  9.0
 -3000025    2    1    2    0    0 -1.71331644014E+02  6.78266969604E+01  5.33042234347E+01  2.49945094193E+02  1.60238000530E+02  1.1445E-12  9.0
        4    1    3    3  500    0  1.10648172580E+02 -2.17674250987E+01  1.99986394225E+01  1.14537941301E+02  1.46817165330E+00  0.0000E+00  9.0
       -3    1    3    3    0  500 -7.56654358694E+00 -1.67037031801E+01 -1.12034926819E+01  2.14901030722E+01  2.00000000000E-01  0.0000E+00  9.0
  3000022    1    3    3    0    0  6.82500150210E+01 -2.93555686816E+01 -6.18492374689E+01  1.13776720547E+02  6.00000000000E+01  0.0000E+00  9.0
       -2    1    4    4    0  504 -4.22987784764E+01  6.42531599301E+01 -2.23735357466E+01  8.01138585539E+01  3.00000000000E-03  0.0000E+00  9.0
        1    1    4    4  504    0 -2.07959506478E+01 -9.54412585868E+00  2.89476635956E+01  3.68989045148E+01  5.00000000000E-03  0.0000E+00  9.0
  3000022    1    4    4    0    0 -1.08236914890E+02  1.31176628890E+01  4.67300955847E+01  1.32932331124E+02  6.00000000000E+01  0.0000E+00  9.0
</event>
<event>
10    1   3.4312288E-02   4.9770000E+02  -1.0000000E+00   9.3540000E-02
       11   -1    0    0    0    0  0.00000000000E+00  0.00000000000E+00  2.47735734940E+02  2.47735734940E+02  0.00000000000E+00  0.0000E+00  9.0
      -11   -1    0    0    0    0  0.00000000000E+00  0.00000000000E+00 -2.50000000000E+02  2.50000000000E+02  0.00000000000E+00  0.0000E+00  9.0
  3000025    2    1    2    0    0 -1.79365174703E+02 -2.11002663693E+01  5.94074925322E+01  2.48642566094E+02  1.60239783974E+02  8.1394E-13  9.0
 -3000025    2    1    2    0    0  1.79365174703E+02  2.11002663693E+01 -6.16717575952E+01  2.49093168850E+02  1.60084083986E+02  2.0340E-13  9.0
        4    1    3    3  500    0 -1.77289422094E+01 -2.89404526132E+01  1.15497498173E+00  3.39905087419E+01  1.46817165330E+00  0.0000E+00  9.0
       -3    1    3    3    0  500 -6.03635327326E+01  5.26639812953E+01  1.51811762967E+01  8.15337912989E+01  2.00000000000E-01  0.0000E+00  9.0
  3000022    1    3    3    0    0 -1.01272699760E+02 -4.48237950513E+01  4.30713412537E+01  1.33118266053E+02  6.00000000000E+01  0.0000E+00  9.0
      -14    1    4    4    0    0  3.37989763533E+01 -2.79374635550E+00  2.23517039474E+01  4.06174160993E+01  0.00000000000E+00  0.0000E+00  9.0
       13    1    4    4    0    0  7.37657110939E+01 -1.36563977855E+01 -7.68530624729E+01  1.07397773336E+02  1.05700000000E-01  0.0000E+00  9.0
  3000022    1    4    4    0    0  7.18004872556E+01  3.75504105101E+01 -7.17039906973E+00  1.01077979414E+02  6.00000000000E+01  0.0000E+00  9.0
</event>
<event>
10    1   3.4312288E-02   4.9840000E+02  -1.0000000E+00   9.3530000E-02
       11   -1    0    0    0    0  0.00000000000E+00  0.00000000000E+00  2.48448225580E+02  2.48448225580E+02  0.00000000000E+00  0.0000E+00  9.0
      -11   -1    0    0    0    0  0.00000000000E+00  0.00000000000E+00 -2.49965940110E+02  2.49965940110E+02  0.00000000000E+00  0.0000E+00  9.0
  3000025    2    1    2    0    0  1.36718095797E+02  1.26010943967E+02  3.66241480143E+01  2.48233707039E+02  1.60337298763E+02  8.1901E-13  9.0
 -3000025    2    1    2    0    0 -1.36718095797E+02 -1.26010943967E+02 -3.81418625493E+01  2.50180458657E+02  1.62987313916E+02  2.4136E-12  9.0
        2    1    3    3  500    0  4.97872034202E+01  5.20854262604E+01  4.86934365968E+01  8.69638317333E+01  3.00000000000E-03  0.0000E+00  9.0
       -1    1    3    3    0  500  2.80085970253E+01  5.15733923809E+01  2.85241719971E+01  6.52527755894E+01  5.00000000000E-03  0.0000E+00  9.0
  3000022    1    3    3    0    0  5.89222953514E+01  2.23521253255E+01 -4.05934605796E+01  9.60170997160E+01  6.00000000000E+01  0.0000E+00  9.0
       -2    1    4    4    0  504 -2.26802026499E+01 -1.04938130740E+02 -2.72117496511E+01  1.10755957869E+02  3.00000000000E-03  0.0000E+00  9.0
        1    1    4    4  504    0 -4.47249221699E+01 -1.20346922386E+00 -8.79171793281E+00  4.55967249974E+01  5.00000000000E-03  0.0000E+00  9.0
  3000022    1    4    4    0    0 -6.93129709771E+01 -1.98693440029E+01 -2.13839496541E+00  9.38277757905E+01  6.00000000000E+01  0.0000E+00  9.0
</event>
<event>
10    1   3.4312288E-02   4.1700000E+02  -1.0000000E+00   9.5540000E-02
       11   -1    0    0    0    0  0.00000000000E+00  0.00000000000E+00  2.38094097420E+02  2.38094097420E+02  0.00000000000E+00  0.0000E+00  9.0
      -11   -1    0    0    0    0  0.00000000000E+00  0.00000000000E+00 -1.82581389300E+02  1.82581389300E+02  0.00000000000E+00  0.0000E+00  9.0
  3000025    2    1    2    0    0  1.28525822275E+02  2.68376092857E+01  5.25231948661E+01  2.13697607029E+02  1.60214971171E+02  1.4292E-12  9.0
 -3000025    2    1    2    0    0 -1.28525822275E+02 -2.68376092857E+01  2.98951325742E+00  2.06977879685E+02  1.59974251759E+02  3.8399E-13  9.0
        2    1    3    3  500    0 -5.87254271883E+00  3.41847120145E+01  3.71265730444E+01  5.08081069173E+01  3.00000000000E-03  0.0000E+00  9.0
       -1    1    3    3    0  500  6.78625942950E+01 -1.93095717106E+00  2.55956044812E+01  7.25547744384E+01  5.00000000000E-03  0.0000E+00  9.0
  3000022    1    3    3    0    0  6.65357706990E+01 -5.41614555788E+00 -1.01989826596E+01  9.03347256735E+01  6.00000000000E+01  0.0000E+00  9.0
       -4    1    4    4    0  504  1.50002021946E+01 -2.13030462115E+00  3.19143734900E+01  3.53585495591E+01  1.46817165330E+00  0.0000E+00  9.0
        3    1    4    4  504    0 -4.95901744749E+01  1.05860226748E+01 -1.94823684083E+01  5.43217448111E+01  2.00000000000E-01  0.0000E+00  9.0
  3000022    1    4    4    0    0 -9.39358499948E+01 -3.52933273392E+01 -9.44249182433E+00  1.17297585315E+02  6.00000000000E+01  0.0000E+00  9.0
</event>
<event>
10    1   3.4312288E-02   4.7330000E+02  -1.0000000E+00   9.4100000E-02
       11   -1    0    0    0    0  0.00000000000E+00  0.00000000000E+00  2.24160794470E+02  2.24160794470E+02  0.00000000000E+00  0.0000E+00  9.0
      -11   -1    0    0    0    0  0.00000000000E+00  0.00000000000E+00 -2.49829737900E+02  2.49829737900E+02  0.00000000000E+00  0.0000E+00  9.0
  3000025    2    1    2    0    0 -8.56551254568E+00  1.36310690897E+02  9.44639561651E+01  2.31767278427E+02  1.61674549255E+02  4.3495E-13  9.0
 -3000025    2    1    2    0    0  8.56551254568E+00 -1.36310690897E+02 -1.20132899593E+02  2.42223253942E+02  1.59956927726E+02  7.7175E-13  9.0
        4    1    3    3  500    0 -5.96377251237E+00  4.40813022363E+01 -2.59074234908E+01  5.14983291900E+01  1.46817165330E+00  0.0000E+00  9.0
       -3    1    3    3    0  500  1.06281354591E+01 -7.90167280889E+00  2.74684590627E+01  3.04950805835E+01  2.00000000000E-01  0.0000E+00  9.0
  3000022    1    3    3    0    0 -1.32298754921E+01  1.00131061470E+02  9.29029205932E+01  1.49773868653E+02  6.00000000000E+01  0.0000E+00  9.0
      -14    1    4    4    0    0 -2.68331540371E+01  3.00644155846E+00 -1.93831635056E+01  3.32379884155E+01  0.00000000000E+00  0.0000E+00  9.0
       13    1    4    4    0    0  8.65912960346E-01 -1.06458074646E+02 -5.78679438502E+01  1.21172528077E+02  1.05700000000E-01  0.0000E+00  9.0
  3000022    1    4    4    0    0  3.45327536216E+01 -3.28590578090E+01 -4.28817922373E+01  8.78127374489E+01  6.00000000000E+01  0.0000E+00  9.0
</event>
<event>
10    1   3.4312288E-02   4.9380000E+02  -1.0000000E+00   9.3630000E-02
       11   -1    0    0    0    0  0.00000000000E+00  0.00000000000E+00  2.44172201430E+02  2.44172201430E+02  0.00000000000E+00  0.0000E+00  9.0
      -11   -1    0    0    0    0  0.00000000000E+00  0.00000000000E+00 -2.49644299630E+02  2.49644299630E+02  0.00000000000E+00  0.0000E+00  9.0
  3000025    2    1    2    0    0  1.12445059762E+02 -1.48447362906E+02 -2.69817943926E+01  2.47019110093E+02  1.60030973576E+02  1.8179E-12  9.0
 -3000025    2    1    2    0    0 -1.12445059762E+02  1.48447362906E+02  2.15096961886E+01  2.46797390971E+02  1.60517208241E+02  1.6760E-13  9.0
       14    1    3    3    0    0  4.59300723267E+01 -6.59122488766E+01  1.98101005939E+01  8.27431941699E+01  0.00000000000E+00  0.0000E+00  9.0
      -13    1    3    3    0    0  5.31632218992E+01 -1.32649640648E+01 -4.61889040203E+01  7.16638923128E+01  1.05700000000E-01  0.0000E+00  9.0
  3000022    1    3    3    0    0  1.33517655357E+01 -6.92701499645E+01 -6.02990967196E-01  9.26120236099E+01  6.00000000000E+01  0.0000E+00  9.0
       -4    1    4    4    0  500 -8.42731068126E+01  4.68216158267E+01 -2.77779422475E+01  1.00339373349E+02  1.46817165330E+00  0.0000E+00  9.0
        3    1    4    4  500    0 -5.23997777545E+00  6.08826749981E+01  1.44420295835E+01  6.27914779289E+01  2.00000000000E-01  0.0000E+00  9.0
  3000022    1    4    4    0    0 -2.29319751723E+01  4.07430720809E+01  3.48456088527E+01  8.36665396931E+01  6.00000000000E+01  0.0000E+00  9.0
</event>
<event>
10    1   3.4312288E-02   4.7170000E+02  -1.0000000E+00   9.4140000E-02
       11   -1    0    0    0    0  0.00000000000E+00  0.00000000000E+00  2.22788749830E+02  2.22788749830E+02  0.00000000000E+00  0.0000E+00  9.0
      -11   -1    0    0    0    0  0.00000000000E+00  0.00000000000E+00 -2.49720957940E+02  2.49720957940E+02  0.00000000000E+00  0.0000E+00  9.0
  3000025    2    1    2    0    0  4.98109615282E+01 -1.39012520766E+02 -1.04330786125E+02  2.41426724497E+02  1.59988554434E+02  1.4134E-13  9.0
 -3000025    2    1    2    0    0 -4.98109615282E+01  1.39012520766E+02  7.73985780212E+01  2.31082983276E+02  1.60009976132E+02  6.3844E-13  9.0
        2    1    3    3  500    0  2.18186734699E+01  5.72782458045E+00 -4.83311317754E-01  2.25631576966E+01  3.00000000000E-03  0.0000E+00  9.0
       -1    1    3    3    0  500 -2.68530916364E+01 -8.47303497514E+01 -3.03625860781E+01  9.39266062294E+01  5.00000000000E-03  0.0000E+00  9.0
  3000022    1    3    3    0    0  5.48453796958E+01 -6.00099955952E+01 -7.34848887289E+01  1.24936960571E+02  6.00000000000E+01  0.0000E+00  9.0
       -2    1    4    4    0  504 -1.50563539769E+01 -4.55223814065E+00 -9.14254353646E+00  1.81934817581E+01  3.00000000000E-03  0.0000E+00  9.0
        1    1    4    4  504    0 -3.20434537616E+00  1.22409172829E+02  4.40460120597E+01  1.30131950824E+02  5.00000000000E-03  0.0000E+00  9.0
  3000022    1    4    4    0    0 -3.15502621743E+01  2.11555860780E+01  4.24951094974E+01  8.27575506934E+01  6.00000000000E+01  0.0000E+00  9.0
</event>
<event>
10    1   3.4312288E-02   4.7320000E+02  -1.0000000E+00   9.4100000E-02
       11   -1    0    0    0    0  0.00000000000E+00  0.00000000000E+00  2.35121757780E+02  2.35121757780E+02  0.00000000000E+00  0.0000E+00  9.0
      -11   -1    0    0    0    0  0.00000000000E+00  0.00000000000E+00 -2.38103406590E+02  2.38103406590E+02  0.00000000000E+00  0.0000E+00  9.0
  3000025    2    1    2    0    0  2.17009671242E+01 -1.38342025360E+02  1.02411439407E+02  2.36081462911E+02  1.60115290507E+02  1.3620E-13  9.0
 -3000025    2    1    2    0    0 -2.17009671242E+01  1.38342025360E+02 -1.05393088217E+02  2.37143701455E+02  1.59749754744E+02  1.2551E-12  9.0
        2    1    3    3  500    0 -4.09329579565E+01 -1.43011676169E+01  8.37604398416E-01  4.33674074900E+01  3.00000000000E-03  0.0000E+00  9.0
       -1    1    3    3    0  500  3.50997458719E+01 -3.68647477751E+01  1.44917615839E+01  5.29245969998E+01  5.00000000000E-03  0.0000E+00  9.0
  3000022    1    3    3    0    0  2.75341792088E+01 -8.71761099672E+01  8.70820734238E+01  1.39789458421E+02  6.00000000000E+01  0.0000E+00  9.0
       -4    1    4    4    0  504  3.09450720864E+01  4.69601609201E+01 -3.78387743562E+01  6.77995764947E+01  1.46817165330E+00  0.0000E+00  9.0
        3    1    4    4  504    0 -4.29462234722E+01  1.62995332603E+01 -5.54249059075E+01  7.19862006907E+01  2.00000000000E-01  0.0000E+00  9.0
  3000022    1    4    4    0    0 -9.69981573896E+00  7.50823311794E+01 -1.21294079531E+01  9.73579242691E+01  6.00000000000E+01  0.0000E+00  9.0
</event>
<event>
10    1   3.4312288E-02   4.9800000E+02  -1.0000000E+00   9.3530000E-02
       11   -1    0    0    0    0  0.00000000000E+00  0.00000000000E+00  2.48215341370E+02  2.48215341370E+02  0.00000000000E+00  0.0000E+00  9.0
      -11   -1    0    0    0    0  0.00000000000E+00  0.00000000000E+00 -2.49802120770E+02  2.49802120770E+02  0.00000000000E+00  0.0000E+00  9.0
  3000025    2    1    2    0    0 -7.69570413753E+00 -1.69525460546E+02  8.53814619828E+01  2.47666028335E+02  1.58903624582E+02  8.0296E-13  9.0
 -3000025    2    1    2    0    0  7.69570413753E+00  1.69525460546E+02 -8.69682413838E+01  2.50351433814E+02  1.62216706192E+02  6.1924E-12  9.0
        2    1    3    3  500    0 -4.71150631671E+01 -7.95265608380E+01  1.50519496789E+01  9.36528923957E+01  3.00000000000E-03  0.0000E+00  9.0
       -1    1    3    3    0  500  1.07002689869E+01 -2.82874310050E+01  5.38943766720E+01  6.18003104452E+01  5.00000000000E-03  0.0000E+00  9.0
  3000022    1    3    3    0    0  2.87190900426E+01 -6.17114687021E+01  1.64351356319E+01  9.22128254935E+01  6.00000000000E+01  0.0000E+00  9.0
       -2    1    4    4    0  504  3.61522564318E+01  2.79448692602E+01  6.43953367791E+00  4.61450860446E+01  3.00000000000E-03  0.0000E+00  9.0
        1    1    4    4  504    0 -1.67222941127E+01  2.27931942890E+01 -6.02555848791E+01  6.65574966507E+01  5.00000000000E-03  0.0000E+00  9.0
  3000022    1    4    4    0    0 -1.17342581815E+01  1.18787396997E+02 -3.31521901828E+01  1.37648851119E+02  6.00000000000E+01  0.0000E+00  9.0
</event>
<event>
10    1   3.4312288E-02   4.2730000E+02  -1.0000000E+00   9.5260000E-02
       11   -1    0    0    0    0  0.00000000000E+00  0.00000000000E+00  2.49836985330E+02  2.49836985330E+02  0.00000000000E+00  0.0000E+00  9.0
      -11   -1    0    0    0    0  0.00000000000E+00  0.00000000000E+00 -1.82691949960E+02  1.82691949960E+02  0.00000000000E+00  0.0000E+00  9.0
  3000025    2    1    2    0    0 -9.29136604015E+01 -1.01876021327E+02  6.66819147181E+01  2.21302133074E+02  1.59738800365E+02  8.0328E-13  9.0
 -3000025    2    1    2    0    0  9.29136604015E+01  1.01876021327E+02  4.63120652461E-01  2.11226802218E+02  1.60015235162E+02  8.2656E-13  9.0
        4    1    3    3  500    0 -3.12488484848E+01 -7.16047617624E+01  1.25309956697E+01  7.91385735223E+01  1.46817165330E+00  0.0000E+00  9.0
       -3    1    3    3    0  500  1.88067538042E+01  8.33694566838E+00  2.15293165264E+01  2.97783498842E+01  2.00000000000E-01  0.0000E+00  9.0
  3000022    1    3    3    0    0 -8.04715657209E+01 -3.86082052330E+01  3.26216025221E+01  1.12385209667E+02  6.00000000000E+01  0.0000E+00  9.0
       -2    1    4    4    0  504  3.11624820866E+01  9.15489353112E+01 -3.79009085935E+00  9.67815718209E+01  3.00000000000E-03  0.0000E+00  9.0
        1    1    4    4  504    0 -1.14528986283E+01 -8.38553737973E+00 -9.36524368269E+00  1.70057031132E+01  5.00000000000E-03  0.0000E+00  9.0
  3000022    1    4    4    0    0  7.32040769438E+01  1.87126233957E+01  1.36184551947E+01  9.74395272846E+01  6.00000000000E+01  0.0000E+00  9.0
</event>
<event>
10    1   3.4312288E-02   4.9980000E+02  -1.0000000E+00   9.3490000E-02
       11   -1    0    0    0    0  0.00000000000E+00  0.00000000000E+00  2.50000000000E+02  2.50000000000E+02  0.00000000000E+00  0.0000E+00  9.0
      -11   -1    0    0    0    0  0.00000000000E+00  0.00000000000E+00 -2.49844129770E+02  2.49844129770E+02  0.00000000000E+00  0.0000E+00  9.0
  3000025    2    1    2    0    0  8.74760564116E+01 -1.54539603306E+02  7.29464734657E+01  2.49923790995E+02  1.60019260962E+02  9.4065E-13  9.0
 -3000025    2    1    2    0    0 -8.74760564116E+01  1.54539603306E+02 -7.27906032367E+01  2.49920338777E+02  1.60084834945E+02  1.3297E-12  9.0
        4    1    3    3  500    0  1.53810202855E+01  2.85129021431E+00  4.16488958339E+01  4.45139494215E+01  1.46817165330E+00  0.0000E+00  9.0
       -3    1    3    3    0  500 -7.93837710559E+00 -3.81309432235E+01 -1.69096670947E+01  4.24613177308E+01  2.00000000000E-01  0.0000E+00  9.0
  3000022    1    3    3    0    0  8.00334132306E+01 -1.19259950297E+02  4.82072447259E+01  1.62948523842E+02  6.00000000000E+01  0.0000E+00  9.0
       -4    1    4    4    0  504 -1.41946637632E+01  8.09979935720E+01  2.48362237172E+00  8.22829712038E+01  1.46817165330E+00  0.0000E+00  9.0
        3    1    4    4  504    0 -3.90406009654E+01 -6.58737678908E+00 -3.40750454362E+00  3.97393148395E+01  2.00000000000E-01  0.0000E+00  9.0
  3000022    1    4    4    0    0 -3.42407916829E+01  8.01289865241E+01 -7.18667210648E+01  1.27898052734E+02  6.00000000000E+01  0.0000E+00  9.0
</event>
<event>
10    1   3.4312288E-02   4.9740000E+02  -1.0000000E+00   9.3550000E-02
       11   -1    0    0    0    0  0.00000000000E+00  0.00000000000E+00  2.49821850310E+02  2.49821850310E+02  0.00000000000E+00  0.0000E+00  9.0
      -11   -1    0    0    0    0  0.00000000000E+00  0.00000000000E+00 -2.47537332090E+02  2.47537332090E+02  0.00000000000E+00  0.0000E+00  9.0
  3000025    2    1    2    0    0 -1.58631336891E+02  9.35212303319E+01  4.82492606120E+01  2.48643233824E+02  1.59954196601E+02  2.3566E-13  9.0
 -3000025    2    1    2    0    0  1.58631336891E+02 -9.35212303319E+01 -4.59647423990E+01  2.48715948578E+02  1.60738122319E+02  1.2250E-12  9.0
        2    1    3    3  500    0 -4.67160330303E+01  8.66811524423E+01  1.05137973160E+01  9.90280256989E+01  3.00000000000E-03  0.0000E+00  9.0
       -1    1    3    3    0  500 -3.04126230868E+00  7.85422816508E-01  2.42211216790E+01  2.44239416520E+01  5.00000000000E-03  0.0000E+00  9.0
  3000022    1    3    3    0    0 -1.08874041552E+02  6.05465507423E+00  1.35143416176E+01  1.25191266474E+02  6.00000000000E+01  0.0000E+00  9.0
       -2    1    4    4    0  504  6.63250620095E+01 -2.58746575737E+01 -4.53177159472E+01  8.43931700008E+01  3.00000000000E-03  0.0000E+00  9.0
        1    1    4    4  504    0  4.81620712658E+01 -1.41782030842E+01  3.98368759991E+01  6.40904303752E+01  5.00000000000E-03  0.0000E+00  9.0
  3000022    1    4    4    0    0  4.41442036162E+01 -5.34683696747E+01 -4.04839024510E+01  1.00232348203E+02  6.00000000000E+01  0.0000E+00  9.0
</event>
<event>
10    1   3.4312288E-02   4.9570000E+02  -1.0000000E+00   9.3590000E-02
       11   -1    0    0    0    0  0.00000000000E+00  0.00000000000E+00  2.45677992900E+02  2.45677992900E+02  0.00000000000E+00  0.0000E+00  9.0
      -11   -1    0    0    0    0  0.00000000000E+00  0.00000000000E+00 -2.49999944130E+02  2.49999944130E+02  0.00000000000E+00  0.0000E+00  9.0
  3000025    2    1    2    0    0 -1.46103946163E+02  1.11904018335E+02 -4.64689061864E+01  2.48168613493E+02  1.59873165593E+02  1.8454E-12  9.0
 -3000025    2    1    2    0    0  1.46103946163E+02 -1.11904018335E+02  4.21469549604E+01  2.47509323540E+02  1.60048826996E+02  2.0889E-12  9.0
        4    1    3    3  500    0 -4.78172364671E+01  9.55993916950E+00  1.24932260027E+01  5.03598725597E+01  1.46817165330E+00  0.0000E+00  9.0
       -3    1    3    3    0  500 -5.54290159620E+01  4.12926383067E+01 -7.35992818450E+01  1.00967084126E+02  2.00000000000E-01  0.0000E+00  9.0
  3000022    1    3    3    0    0 -4.28576937348E+01  6.10514408597E+01  1.46371496548E+01  9.68416568080E+01  6.00000000000E+01  0.0000E+00  9.0
       -2    1    4    4    0  504  2.14192105795E+01 -8.20768047173E+00 -2.79733507004E+01  3.61753639786E+01  3.00000000000E-03  0.0000E+00  9.0
        1    1    4    4  504    0  1.05459682715E+02 -5.43152618883E+01  5.04157027130E+01  1.28893892242E+02  5.00000000000E-03  0.0000E+00  9.0
  3000022    1    4    4    0    0  1.92250528697E+01 -4.93810759754E+01  1.97046029477E+01  8.24400673196E+01  6.00000000000E+01  0.0000E+00  9.0
</event>
<event>
10    1   3.4312288E-02   4.7270000E+02  -1.0000000E+00   9.4120000E-02
       11   -1    0    0    0    0  0.00000000000E+00  0.00000000000E+00  2.44534521530E+02  2.44534521530E+02  0.00000000000E+00  0.0000E+00  9.0
      -11   -1    0    0    0    0  0.00000000000E+00  0.00000000000E+00 -2.28467441620E+02  2.28467441620E+02  0.00000000000E+00  0.0000E+00  9.0
  3000025    2    1    2    0    0 -7.90963643735E+01  1.18447681312E+02  1.08053005706E+02  2.39878998665E+02  1.59938719181E+02  2.1563E-12  9.0
 -3000025    2    1    2    0    0  7.90963643735E+01 -1.18447681312E+02 -9.19859257913E+01  2.33122964493E+02  1.59996306098E+02  3.7165E-13  9.0
        4    1    3    3  500    0  3.87012548818E+00  5.84316115998E+01 -3.47828585145E+00  5.86812159547E+01  1.46817165330E+00  0.0000E+00  9.0
       -3    1    3    3    0  500 -2.83031042606E+01 -1.52003652905E+01  2.63192555462E+01  4.15314342187E+01  2.00000000000E-01  0.0000E+00  9.0
  3000022    1    3    3    0    0 -5.46633855999E+01  7.52164350025E+01  8.52120360111E+01  1.39666348491E+02  6.00000000000E+01  0.0000E+00  9.0
       -2    1    4    4    0  504  6.05177702023E+01 -2.22890752666E+01 -6.85046332719E+01  9.40855364826E+01  3.00000000000E-03  0.0000E+00  9.0
        1    1    4    4  504    0  1.23042109987E+01 -1.79016709288E+01  2.14167050951E+01  3.05047326243E+01  5.00000000000E-03  0.0000E+00  9.0
  3000022    1    4    4    0    0  6.27438317285E+00 -7.82569351175E+01 -4.48979976142E+01  1.08532695387E+02  6.00000000000E+01  0.0000E+00  9.0
</event>
<event>
10    1   3.4312288E-02   4.2310000E+02  -1.0000000E+00   9.5380000E-02
       11   -1    0    0    0    0  0.00000000000E+00  0.00000000000E+00  2.48509903240E+02  2.48509903240E+02  0.00000000000E+00  0.0000E+00  9.0
      -11   -1    0    0    0    0  0.00000000000E+00  0.00000000000E+00 -1.80097061620E+02  1.80097061620E+02  0.00000000000E+00  0.0000E+00  9.0
  3000025    2    1    2    0    0 -1.16368856669E+02  4.22618879214E+01  9.68619501669E+01  2.24313435637E+02  1.60020317597E+02  1.0445E-13  9.0
 -3000025    2    1    2    0    0  1.16368856669E+02 -4.22618879214E+01 -2.84491085429E+01  2.04293529225E+02  1.59995988491E+02  3.4834E-14  9.0
        4    1    3    3  500    0 -5.82777219675E+01  3.57851079786E+01  2.09113538521E+01  7.15283655530E+01  1.46817165330E+00  0.0000E+00  9.0
       -3    1    3    3    0  500  1.21197185600E+01 -1.63129035817E+01 -1.16863843023E+01  2.34437620552E+01  2.00000000000E-01  0.0000E+00  9.0
  3000022    1    3    3    0    0 -7.02108532606E+01  2.27896835243E+01  8.76369806164E+01  1.29341308028E+02  6.00000000000E+01  0.0000E+00  9.0
       -4    1    4    4    0  504  6.64606466436E+01  3.46271932498E+01 -1.42989831903E+00  7.49683946864E+01  1.46817165330E+00  0.0000E+00  9.0
        3    1    4    4  504    0  2.12741018383E+01 -3.89542442851E+01  8.08456851941E+00  4.51156381423E+01  2.00000000000E-01  0.0000E+00  9.0
  3000022    1    4    4    0    0  2.86341081869E+01 -3.79348368861E+01 -3.51037787430E+01  8.42094963960E+01  6.00000000000E+01  0.0000E+00  9.0
</event>
<event>
10    1   3.4312288E-02   4.8490000E+02  -1.0000000E+00   9.3830000E-02
       11   -1    0    0    0    0  0.00000000000E+00  0.00000000000E+00  2.37808553630E+02  2.37808553630E+02  0.00000000000E+00  0.0000E+00  9.0
      -11   -1    0    0    0    0  0.00000000000E+00  0.00000000000E+00 -2.47192796710E+02  2.47192796710E+02  0.00000000000E+00  0.0000E+00  9.0
  3000025    2    1    2    0    0 -1.68127846201E+02 -7.84053225665E+00  6.50267740211E+01  2.41191533289E+02  1.60051328568E+02  9.5661E-13  9.0
 -3000025    2    1    2    0    0  1.68127846201E+02  7.84053225665E+00 -7.44110171051E+01  2.43809817044E+02  1.59930549946E+02  9.0774E-14  9.0
        2    1    3    3  500    0 -2.99650688290E+00  2.79760866638E+01  1.38158217414E+01  3.13451338792E+01  3.00000000000E-03  0.0000E+00  9.0
       -1    1    3    3    0  500 -1.15474409828E+02  8.60117356126E-01  4.35589574600E+01  1.23419860343E+02  5.00000000000E-03  0.0000E+00  9.0
  3000022    1    3    3    0    0 -4.96569294884E+01 -3.66767362767E+01  7.65199482029E+00  8.64265390656E+01  6.00000000000E+01  0.0000E+00  9.0
       -2    1    4    4    0  504  7.23116019610E+01  3.48518338706E+01  1.01989054943E+01  8.09174627914E+01  3.00000000000E-03  0.0000E+00  9.0
        1    1    4    4  504    0 -1.00390349625E+01 -4.93718268677E+00 -2.10802338345E+01  2.38649173344E+01  5.00000000000E-03  0.0000E+00  9.0
  3000022    1    4    4    0    0  1.05855279202E+02 -2.20741189274E+01 -6.35296887641E+01  1.39027436918E+02  6.00000000000E+01  0.0000E+00  9.0
</event>
<event>
10    1   3.4312288E-02   5.0000000E+02  -1.0000000E+00   9.3490000E-02
       11   -1    0    0    0    0  0.00000000000E+00  0.00000000000E+00  2.49999962060E+02  2.49999962060E+02  0.00000000000E+00  0.0000E+00  9.0
      -11   -1    0    0    0    0  0.00000000000E+00  0.00000000000E+00 -2.49973962380E+02  2.49973962380E+02  0.00000000000E+00  0.0000E+00  9.0
  3000025    2    1    2    0    0 -1.47991953859E+02  1.07769083294E+02  5.82679322736E+01  2.49960560613E+02  1.59904146942E+02  1.0412E-12  9.0
 -3000025    2    1    2    0    0  1.47991953859E+02 -1.07769083294E+02 -5.82419325886E+01  2.50013363822E+02  1.59996142632E+02  1.7833E-12  9.0
        4    1    3    3  500    0 -2.46065008316E+01  5.45165246879E+01 -1.98949353910E+00  5.98635528495E+01  1.46817165330E+00  0.0000E+00  9.0
       -3    1    3    3    0  500 -1.92354217172E+01 -2.01562337489E-01  5.51964966504E+01  5.84528469665E+01  2.00000000000E-01  0.0000E+00  9.0
  3000022    1    3    3    0    0 -1.04150031311E+02  5.34541209439E+01  5.06092916242E+00  1.31644160797E+02  6.00000000000E+01  0.0000E+00  9.0
       -2    1    4    4    0  504 -1.38812734417E+01 -1.06213046894E+01  9.02252986928E+00  1.96699750867E+01  3.00000000000E-03  0.0000E+00  9.0
        1    1    4    4  504    0  1.03691999272E+02 -4.25517976334E+01 -3.99671899691E+00  1.12154625328E+02  5.00000000000E-03  0.0000E+00  9.0
  3000022    1    4    4    0    0  5.81812280304E+01 -5.45959809711E+01 -6.32677434601E+01  1.18188763408E+02  6.00000000000E+01  0.0000E+00  9.0
</event>
<event>
10    1   3.4312288E-02   4.6130000E+02  -1.0000000E+00   9.4390000E-02
       11   -1    0    0    0    0  0.00000000000E+00  0.00000000000E+00  2.47000194170E+02  2.47000194170E+02  0.00000000000E+00  0.0000E+00  9.0
      -11   -1    0    0    0    0  0.00000000000E+00  0.00000000000E+00 -2.15376619960E+02  2.15376619960E+02  0.00000000000E+00  0.0000E+00  9.0
  3000025    2    1    2    0    0 -1.12726311590E+02 -1.12116041133E+02  6.40267949395E+01  2.34540763143E+02  1.60102189558E+02  4.3893E-14  9.0
 -3000025    2    1    2    0    0  1.12726311590E+02  1.12116041133E+02 -3.24032207275E+01  2.27836050973E+02  1.59943957077E+02  6.6251E-14  9.0
       14    1    3    3    0    0  2.62734845228E+00 -6.61069458490E+01  3.23265213398E+01  7.36344704015E+01  0.00000000000E+00  0.0000E+00  9.0
      -13    1    3    3    0    0 -7.35279542135E+01 -3.83162625053E+01  2.70615433915E+01  8.72171676129E+01  1.05700000000E-01  0.0000E+00  9.0
  3000022    1    3    3    0    0 -4.18257058292E+01 -7.69283277849E+00  4.63873020891E+00  7.36891251286E+01  6.00000000000E+01  0.0000E+00  9.0
       -4    1    4    4    0  500  4.72802797598E+01  4.08318824906E+01  1.79652855591E+01  6.50198007927E+01  1.46817165330E+00  0.0000E+00  9.0
        3    1    4    4  500    0  4.59828603484E+01  4.56551272808E+01 -6.64954910475E+01  9.28466715746E+01  2.00000000000E-01  0.0000E+00  9.0
  3000022    1    4    4    0    0  1.94631714814E+01  2.56290313605E+01  1.61269847619E+01  6.99695786046E+01  6.00000000000E+01  0.0000E+00  9.0
</event>
<event>
10    1   3.4312288E-02   4.9630000E+02  -1.0000000E+00   9.3570000E-02
       11   -1    0    0    0    0  0.00000000000E+00  0.00000000000E+00  2.49801076180E+02  2.49801076180E+02  0.00000000000E+00  0.0000E+00  9.0
      -11   -1    0    0    0    0  0.00000000000E+00  0.00000000000E+00 -2.46529696290E+02  2.46529696290E+02  0.00000000000E+00  0.0000E+00  9.0
  3000025    2    1    2    0    0 -1.07343843695E+02  1.52786507929E+02  3.48661101601E+01  2.48372374242E+02  1.60021163802E+02  4.9486E-14  9.0
 -3000025    2    1    2    0    0  1.07343843695E+02 -1.52786507929E+02 -3.15947302681E+01  2.47958398232E+02  1.60058497083E+02  2.1022E-12  9.0
        4    1    3    3  500    0 -4.93871320111E+01  9.05152388381E+01 -8.97884583800E+00  1.03512668166E+02  1.46817165330E+00  0.0000E+00  9.0
       -3    1    3    3    0  500 -4.37862983167E+01 -7.59896037884E+00  8.78365218708E+00  4.53009565557E+01  2.00000000000E-01  0.0000E+00  9.0
  3000022    1    3    3    0    0 -1.41704133668E+01  6.98702294700E+01  3.50613038116E+01  9.95587495208E+01  6.00000000000E+01  0.0000E+00  9.0
       -2    1    4    4    0  504  6.16596209812E+01 -1.35628773367E+02 -3.00341365819E+01  1.51983954395E+02  3.00000000000E-03  0.0000E+00  9.0
        1    1    4    4  504    0  1.77320480501E+01  7.82340372921E+00 -1.43028590194E+01  2.40874028299E+01  5.00000000000E-03  0.0000E+00  9.0
  3000022    1    4    4    0    0  2.79521746633E+01 -2.49811382920E+01  1.27422653342E+01  7.18870410062E+01  6.00000000000E+01  0.0000E+00  9.0
</event>
<event>
10    1   3.4312288E-02   4.5960000E+02  -1.0000000E+00   9.4430000E-02
       11   -1    0    0    0    0  0.00000000000E+00  0.00000000000E+00  2.13119436930E+02  2.13119436930E+02  0.00000000000E+00  0.0000E+00  9.0
      -11   -1    0    0    0    0  0.00000000000E+00  0.00000000000E+00 -2.47808924800E+02  2.47808924800E+02  0.00000000000E+00  0.0000E+00  9.0
  3000025    2    1    2    0    0  1.14910570076E+02 -1.04142126435E+02 -7.38713896769E+01  2.34737434544E+02  1.59983309599E+02  1.2916E-12  9.0
 -3000025    2    1    2    0    0 -1.14910570076E+02  1.04142126435E+02  3.91819018029E+01  2.26190927190E+02  1.59928398043E+02  6.6537E-12  9.0
        4    1    3    3  500    0  6.09465166429E+01 -6.65984906911E+01 -5.68809445489E+01  1.06711921705E+02  1.46817165330E+00  0.0000E+00  9.0
       -3    1    3    3    0  500  3.65003176821E+01 -1.98569155768E+01  2.70276526694E+01  4.95691869606E+01  2.00000000000E-01  0.0000E+00  9.0
  3000022    1    3    3    0    0  1.74637357503E+01 -1.76867201675E+01 -4.40180977974E+01  7.84563258784E+01  6.00000000000E+01  0.0000E+00  9.0
       -2    1    4    4    0  504  4.90318906793E+00 -1.56755494133E+01 -1.68148787198E+01  2.35054093307E+01  3.00000000000E-03  0.0000E+00  9.0
        1    1    4    4  504    0 -7.08833612257E+01  3.24032719835E+01  1.94483276366E+01  8.03284532824E+01  5.00000000000E-03  0.0000E+00  9.0
  3000022    1    4    4    0    0 -4.89303979175E+01  8.74144038642E+01  3.65484528861E+01  1.22357064576E+02  6.00000000000E+01  0.0000E+00  9.0
</event>
<event>
10    1   3.4312288E-02   4.4440000E+02  -1.0000000E+00   9.4810000E-02
       11   -1    0    0    0    0  0.00000000000E+00  0.00000000000E+00  2.46763290030E+02  2.46763290030E+02  0.00000000000E+00  0.0000E+00  9.0
      -11   -1    0    0    0    0  0.00000000000E+00  0.00000000000E+00 -2.00096103030E+02  2.00096103030E+02  0.00000000000E+00  0.0000E+00  9.0
  3000025    2    1    2    0    0 -1.14887469379E+02  7.83435685250E+01  9.06123290023E+01  2.30449945033E+02  1.59874130643E+02  4.9817E-12  9.0
 -3000025    2    1    2    0    0  1.14887469379E+02 -7.83435685250E+01 -4.39451419963E+01  2.16409448029E+02  1.59890676218E+02  2.7727E-12  9.0
        2    1    3    3  500    0 -3.94779359078E+01  1.42231141309E+01 -2.04745322813E+01  4.66905866343E+01  3.00000000000E-03  0.0000E+00  9.0
       -1    1    3    3    0  500 -1.45382869178E+01  5.89144980527E+01  4.88626140506E+01  7.79091454462E+01  5.00000000000E-03  0.0000E+00  9.0
  3000022    1    3    3    0    0 -6.08712465535E+01  5.20595634091E+00  6.22242472318E+01  1.05850212952E+02  6.00000000000E+01  0.0000E+00  9.0
       -2    1    4    4    0  504  7.86560439539E+00  2.09804486121E+01 -3.43595769002E+01  4.10198426402E+01  3.00000000000E-03  0.0000E+00  9.0
        1    1    4    4  504    0  1.39574740417E+01 -5.34997966054E+01 -2.88923964331E+00  5.53659376256E+01  5.00000000000E-03  0.0000E+00  9.0
  3000022    1    4    4    0    0  9.30643909410E+01 -4.58242205307E+01 -6.69632545269E+00  1.20023667762E+02  6.00000000000E+01  0.0000E+00  9.0
</event>
<event>
10    1   3.4312288E-02   4.6110000E+02  -1.0000000E+00   9.4400000E-02
       11   -1    0    0    0    0  0.00000000000E+00  0.00000000000E+00  2.12577889190E+02  2.12577889190E+02  0.00000000000E+00  0.0000E+00  9.0
      -11   -1    0    0    0    0  0.00000000000E+00  0.00000000000E+00 -2.49997990260E+02  2.49997990260E+02  0.00000000000E+00  0.0000E+00  9.0
  3000025    2    1    2    0    0 -1.26705907954E+01  8.76794687936E+01 -1.59344565845E+02  2.42642125069E+02  1.60113325726E+02  2.4881E-12  9.0
 -3000025    2    1    2    0    0  1.26705907954E+01 -8.76794687936E+01  1.21924464775E+02  2.19933754369E+02  1.60178176046E+02  3.8231E-13  9.0
       14    1    3    3    0    0 -5.16393636249E+01  3.29846977197E+01 -5.34458489939E+01  8.13085046839E+01  0.00000000000E+00  0.0000E+00  9.0
      -13    1    3    3    0    0  1.70808673467E+01 -1.43010488349E+01 -3.90479047047E+00  2.26171304149E+01  1.05700000000E-01  0.0000E+00  9.0
  3000022    1    3    3    0    0  2.18879054827E+01  6.89958199092E+01 -1.01993926381E+02  1.38716489971E+02  6.00000000000E+01  0.0000E+00  9.0
       -4    1    4    4    0  500  1.37396681185E+01 -2.06941641678E+01  5.34462909045E+01  5.89549696808E+01  1.46817165330E+00  0.0000E+00  9.0
        3    1    4    4  500    0  1.01344265013E+01 -1.48389470489E+01 -2.93582244166E+01  3.44215962867E+01  2.00000000000E-01  0.0000E+00  9.0
  3000022    1    4    4    0    0 -1.12035038247E+01 -5.21463575768E+01  9.78363982867E+01  1.26557188402E+02  6.00000000000E+01  0.0000E+00  9.0
</event>
<event>
10    1   3.4312288E-02   5.0000000E+02  -1.0000000E+00   9.3490000E-02
       11   -1    0    0    0    0  0.00000000000E+00  0.00000000000E+00  2.50000000000E+02  2.50000000000E+02  0.00000000000E+00  0.0000E+00  9.0
      -11   -1    0    0    0    0  0.00000000000E+00  0.00000000000E+00 -2.49998872310E+02  2.49998872310E+02  0.00000000000E+00  0.0000E+00  9.0
  3000025    2    1    2    0    0  3.36643734384E+00 -1.78170873843E+02 -7.25564510864E+01  2.49702446306E+02  1.59156149460E+02  1.2007E-12  9.0
 -3000025    2    1    2    0    0 -3.36643734384E+00  1.78170873843E+02  7.25575787804E+01  2.50296425997E+02  1.60085931431E+02  1.5762E-13  9.0
        2    1    3    3  500    0 -2.77075276378E+01 -3.28835929869E+00 -1.33810529016E+01  3.09446761242E+01  3.00000000000E-03  0.0000E+00  9.0
       -1    1    3    3    0  500  4.77861270495E+01 -4.25821115274E+01 -1.21061165746E+01  6.51406804082E+01  5.00000000000E-03  0.0000E+00  9.0
  3000022    1    3    3    0    0 -1.67121620669E+01 -1.32300403017E+02 -4.70692816102E+01  1.53617089774E+02  6.00000000000E+01  0.0000E+00  9.0
       -4    1    4    4    0  504 -3.64241464262E+01  2.06131495326E+01 -6.50006326310E+00  4.23795555304E+01  1.46817165330E+00  0.0000E+00  9.0
        3    1    4    4  504    0  3.34388224470E+01  5.97408868853E+01 -1.82899007536E-01  6.84631423799E+01  2.00000000000E-01  0.0000E+00  9.0
  3000022    1    4    4    0    0 -3.81113364740E-01  9.78168374250E+01  7.92405410521E+01  1.39453728087E+02  6.00000000000E+01  0.0000E+00  9.0
</event>
</LesHouchesEvents>
