<LesHouchesEvents version="1.0">
<!--
File generated with CalcHEP-PYTHIA interface
-->
<header>
<hepml>
<samples xmlns="http://mcdb.cern.ch/hepml/0.2/"
    xmlns:xsi="http://www.w3.org/2001/XMLSchema-instance"
    xsi:schemaLocation="http://mcdb.cern.ch/hepml/0.2/ http://mcdb.cern.ch/hepml/0.2/hepml.xsd">
    <files>
        <file>
            <eventsNumber> 1000          </eventsNumber>
            <crossSection unit="pb">5.1860E+00</crossSection>
            <fileSize> 1276436          </fileSize>
            <comments> </comments>
            <location>
            </location>
        </file>
    </files>
    <description>
        <title>  </title>
        <abstract> </abstract>
        <authorComments> </authorComments>
	<experimentGroup>
	    <experiment> </experiment>
	    <group> </group>
	    <responsiblePerson> </responsiblePerson>
	    <description>  </description>
	</experimentGroup>
        <generator>
            <name>CalcHEP</name>
            <version> 3.6.30 </version>
            <homepage>http://theory.sinp.msu.ru/~pukhov/calchep.html</homepage>
            <description>
 CalcHEP - a package for calculation of Feynman diagrams
 integration over multi-particle phase space,
 generation of events and application of decay processes
            </description>
        </generator>
        <model>
             <name> </name>
             <description>Standard Model(CKM=1)</description>
            <parameters>
                <parameter>
                    <name>EE</name>
                    <value>0.313430</value>
			      <notation>
				      <plain> </plain>
				      <Latex> </Latex>
			      </notation>
			      <description> </description>
                </parameter>
                <parameter>
                    <name>alfSMZ</name>
                    <value>0.118400</value>
			      <notation>
				      <plain> </plain>
				      <Latex> </Latex>
			      </notation>
			      <description> </description>
                </parameter>
                <parameter>
                    <name>Mm</name>
                    <value>0.105700</value>
			      <notation>
				      <plain> </plain>
				      <Latex> </Latex>
			      </notation>
			      <description> </description>
                </parameter>
                <parameter>
                    <name>Ml</name>
                    <value>1.777000</value>
			      <notation>
				      <plain> </plain>
				      <Latex> </Latex>
			      </notation>
			      <description> </description>
                </parameter>
                <parameter>
                    <name>Q</name>
                    <value>100.000000</value>
			      <notation>
				      <plain> </plain>
				      <Latex> </Latex>
			      </notation>
			      <description> </description>
                </parameter>
                <parameter>
                    <name>McMc</name>
                    <value>1.200000</value>
			      <notation>
				      <plain> </plain>
				      <Latex> </Latex>
			      </notation>
			      <description> </description>
                </parameter>
                <parameter>
                    <name>MbMb</name>
                    <value>4.230000</value>
			      <notation>
				      <plain> </plain>
				      <Latex> </Latex>
			      </notation>
			      <description> </description>
                </parameter>
                <parameter>
                    <name>Mtp</name>
                    <value>172.500000</value>
			      <notation>
				      <plain> </plain>
				      <Latex> </Latex>
			      </notation>
			      <description> </description>
                </parameter>
                <parameter>
                    <name>MZ</name>
                    <value>91.188000</value>
			      <notation>
				      <plain> </plain>
				      <Latex> </Latex>
			      </notation>
			      <description> </description>
                </parameter>
                <parameter>
                    <name>MW</name>
                    <value>80.385000</value>
			      <notation>
				      <plain> </plain>
				      <Latex> </Latex>
			      </notation>
			      <description> </description>
                </parameter>
                <parameter>
                    <name>Mh</name>
                    <value>125.000000</value>
			      <notation>
				      <plain> </plain>
				      <Latex> </Latex>
			      </notation>
			      <description> </description>
                </parameter>
                <parameter>
                    <name>wt</name>
                    <value>1.590000</value>
			      <notation>
				      <plain> </plain>
				      <Latex> </Latex>
			      </notation>
			      <description> </description>
                </parameter>
                <parameter>
                    <name>wZ</name>
                    <value>2.494440</value>
			      <notation>
				      <plain> </plain>
				      <Latex> </Latex>
			      </notation>
			      <description> </description>
                </parameter>
                <parameter>
                    <name>wW</name>
                    <value>2.088950</value>
			      <notation>
				      <plain> </plain>
				      <Latex> </Latex>
			      </notation>
			      <description> </description>
                </parameter>
            </parameters>
        </model>
        <process>
            <beam1>
                <particle KFcode="11">e-</particle>
                <energy unit="GeV">2.500E+02</energy>
                <pdf name= "ISR+Beamstrahlung"> </pdf>
            </beam1>
            <beam2>
                <particle KFcode="-11">e-</particle>
                <energy unit="GeV">2.500E+02</energy>
                <pdf name= "ISR+Beamstrahlung"> </pdf>
            </beam2>
	    <finalState>
		<state>
                </state>
		<notation>
		    <plain>
                   </plain>
		    <Latex> </Latex>
		</notation>
	    </finalState>
            <crossSection unit="pb">5.186E+00</crossSection>
            <subprocesses>
              <subprocess cutset_id="1" >
                <notation> e(11),E(-11) -> W+(24),W-(-24) </notation>
                <crossSection unit="pb"> 8.368094E+00 </crossSection>
              </subprocess>
            </subprocesses>
        </process>
        <cuts>
            <cutSet cutset_id="1">
                <cut>
                    <object>
                        <name> </name>
                        <notation>
                            <plain> </plain>
                            <Latex> </Latex>
                        </notation>
                    </object>
                    <minValue> </minValue>
                    <maxValue> </maxValue>
                    <logic> </logic>
                </cut>
            </cutSet>
        </cuts>
        <authors>
       	   <author>
       	      <firstName>CalcHEP</firstName>
              <lastName> </lastName>
              <email>calchep[at]goolegroups.com</email>  
              <experiment> </experiment>
              <group> </group>
       	      <organization> </organization>
   	   </author>
         </authors>
    </description>
</samples>
</hepml>
<slha>
BLOCK MASS
 21    0.000000E+00 # 
 22    0.000000E+00 # 
 23    9.118800E+01 # 
 24    8.038500E+01 # 
 25    1.250000E+02 # 
 11    0.000000E+00 # 
 12    0.000000E+00 # 
 13    1.057000E-01 # 
 14    0.000000E+00 # 
 15    1.777000E+00 # 
 16    0.000000E+00 # 
 1    0.000000E+00 # 
 2    0.000000E+00 # 
 3    0.000000E+00 # 
 4    5.873869E-01 # 
 5    3.180523E+00 # 
 6    1.725000E+02 # 

DECAY 25  3.796415E-03 # h 
   2.899198E-02  2  23  23  # Z,Z 
   2.325826E-01  2  24  -24  # W+,W- 
   2.495731E-04  2  13  -13  # m,M 
   7.045270E-02  2  15  -15  # l,L 
   2.209990E-02  2  4  -4  # c,C 
   6.456232E-01  2  5  -5  # b,B 
</slha>

<calchep-batch>
<![CDATA[
#########################################
#            Model Info                 #
#########################################
Model:     Standard Model(CKM=1)
#
Gauge:     Feynman


#########################################
#            Processes                  #
#########################################
Process   :    e,E->W+,W-
Decay     :     W+->y,y
Decay     :     W-->y,y
Alias :    l=e,E,m,M,l,L,ne,Ne,nm,Nm,nl,Nl
Alias :    j=G,u,U,d,D,c,C,s,S,b,B
Alias :    y=m,M,nm,Nm,G,u,U,d,D,c,C,s,S,b,B

#########################################
#            PDF's                      #
#########################################
pdf1 :       ISR&Beamstrahlung
pdf2 :       ISR&Beamstrahlung

Bunch x+y sizes (nm) : 560
Bunch length (mm)    : 0.4
Number of particles  : 20000000000
#

#########################################
#            Momenta                    #
#########################################
p1 :         250
p2 :         250


#########################################
#            Parameters                 #
#########################################
Parameter:   EE=0.31343
Parameter:   alfSMZ=0.1184
Parameter:   Mm=0.1057
Parameter:   Ml=1.777
Parameter:   Q=100
Parameter:   McMc=1.2
Parameter:   MbMb=4.23
Parameter:   Mtp=172.5
Parameter:   MZ=91.188
Parameter:   MW=80.385
Parameter:   Mh=125
Parameter:   wt=1.59
Parameter:   wZ=2.49444
Parameter:   wW=2.08895

#########################################
#            QCD running info           #
#########################################
parton dist. alpha : 0
alpha(MZ)          : 0.1172
alpha nf           : 5
alpha order        : 2
mb(mb)             : 4.2
Mtop(pole)         : 175

#########################################
#            Breit-Wigner               #
#########################################
Breit Wigner range : 2.7
T-channel widths   : OFF
GI in T-channel    : OFF
GI in S-channel    : OFF

#########################################
#            Cuts                       #
#########################################

#########################################
#            Kinematics                 #
#########################################

#########################################
#            Regularization             #
#########################################

#########################################
#            Distributions              #
#########################################

#########################################
#            Events Generation          #
#########################################
Number of events (per run step): 1000
Max lumi [1/fb]                : 1000000000
Filename                       : SM_viaWW_ex-single
Cleanup                        : False

#########################################
#            Parallelization info       #
#########################################
Parallelization method : local
Que                    : 
Walltime               : 0
Memory                 : 0
email                  : 
Max number of cpus     : 8
sleep time             : 3
nice level             : 19

#########################################
#            Vegas                      #
#########################################
nSess_1  : 10
nCalls_1 : 1000000
nSess_2  : 10
nCalls_2 : 1000000

#########################################
#           Event Generator             #
#########################################
sub-cubes      : 10000
MAX*N          : 2.000000
find new MAX   : 50

]]>
</calchep-batch>
</header>
<init>
    11   -11  2.50000000000E+02  2.50000000000E+02    -1    -1    -1    -1    -4     1
  5.18597664909E+00  0.00000000000E+00  1.00000000000E+00   1
</init>
<event>
 8    1   5.1859766E+00   4.0030000E+02  -1.0000000E+00   9.6020000E-02
       11   -1    0    0    0    0  0.00000000000E+00  0.00000000000E+00  1.63932263860E+02  1.63932263860E+02  0.00000000000E+00  0.0000E+00  9.0
      -11   -1    0    0    0    0  0.00000000000E+00  0.00000000000E+00 -2.44412489920E+02  2.44412489920E+02  0.00000000000E+00  0.0000E+00  9.0
       24    2    1    2    0    0  7.52546541845E+01  8.36980115128E+01 -1.87079452377E+02  2.33390338804E+02  8.24845963648E+01  4.6686E-14  9.0
      -24    2    1    2    0    0 -7.52546541845E+01 -8.36980115128E+01  1.06599226317E+02  1.74954414975E+02  8.10989035692E+01  3.5011E-14  9.0
       -3    1    3    3    0  500  2.44256906408E+01  2.45450014721E+00 -1.58252387172E+00  2.45996608931E+01  0.00000000000E+00  0.0000E+00  9.0
        4    1    3    3  500    0  5.08289635437E+01  8.12435113656E+01 -1.85496928506E+02  2.08790677911E+02  5.87386917370E-01  0.0000E+00  9.0
        3    1    4    4  504    0 -7.97586593717E+01 -8.26414005260E+01  1.16756552734E+02  1.63777707372E+02  0.00000000000E+00  0.0000E+00  9.0
       -4    1    4    4    0  504  4.50400518727E+00 -1.05661098681E+00 -1.01573264170E+01  1.11767076027E+01  5.87386917370E-01  0.0000E+00  9.0
</event>
<event>
 8    1   5.1859766E+00   4.9600000E+02  -1.0000000E+00   9.3580000E-02
       11   -1    0    0    0    0  0.00000000000E+00  0.00000000000E+00  2.49999994500E+02  2.49999994500E+02  0.00000000000E+00  0.0000E+00  9.0
      -11   -1    0    0    0    0  0.00000000000E+00  0.00000000000E+00 -2.46048629930E+02  2.46048629930E+02  0.00000000000E+00  0.0000E+00  9.0
       24    2    1    2    0    0 -3.30428819709E+01 -4.47779470655E+01 -2.25636842761E+02  2.46164803877E+02  8.11679078471E+01  1.1252E-14  9.0
      -24    2    1    2    0    0  3.30428819709E+01  4.47779470655E+01  2.29588207331E+02  2.49883820553E+02  8.14511033464E+01  2.9521E-13  9.0
       -3    1    3    3    0  500 -4.52419032107E+01 -6.42165092158E+00 -1.78127089059E+02  1.83894881015E+02  0.00000000000E+00  0.0000E+00  9.0
        4    1    3    3  500    0  1.21990212398E+01 -3.83562961439E+01 -4.75097537022E+01  6.22699228627E+01  5.87386917370E-01  0.0000E+00  9.0
       13    1    4    4    0    0  4.60675074858E+00 -1.18742589125E+01  1.37495613630E+02  1.38084304384E+02  1.05700000000E-01  0.0000E+00  9.0
      -14    1    4    4    0    0  2.84361312223E+01  5.66522059780E+01  9.20925937009E+01  1.11799516169E+02  0.00000000000E+00  0.0000E+00  9.0
</event>
<event>
 8    1   5.1859766E+00   4.8930000E+02  -1.0000000E+00   9.3730000E-02
       11   -1    0    0    0    0  0.00000000000E+00  0.00000000000E+00  2.39402754890E+02  2.39402754890E+02  0.00000000000E+00  0.0000E+00  9.0
      -11   -1    0    0    0    0  0.00000000000E+00  0.00000000000E+00 -2.49999902470E+02  2.49999902470E+02  0.00000000000E+00  0.0000E+00  9.0
       24    2    1    2    0    0 -9.73490862646E+00  3.61346223832E+00 -2.35755589530E+02  2.49188561157E+02  8.00400865911E+01  6.3226E-14  9.0
      -24    2    1    2    0    0  9.73490862646E+00 -3.61346223832E+00  2.25158441960E+02  2.40214096195E+02  8.30581872502E+01  6.1359E-16  9.0
       -3    1    3    3    0  500 -1.23431432741E+01  4.10977014324E+01 -1.34819680634E+02  1.41483993919E+02  0.00000000000E+00  0.0000E+00  9.0
        4    1    3    3  500    0  2.60823464768E+00 -3.74842391941E+01 -1.00935908896E+02  1.07704567239E+02  5.87386917370E-01  0.0000E+00  9.0
        1    1    4    4  504    0 -3.23047230371E+01  1.32658111868E+00  4.66717367609E+01  5.67768082957E+01  0.00000000000E+00  0.0000E+00  9.0
       -2    1    4    4    0  504  4.20396316635E+01 -4.94004335700E+00  1.78486705200E+02  1.83437287899E+02  0.00000000000E+00  0.0000E+00  9.0
</event>
<event>
 8    1   5.1859766E+00   2.1620000E+02  -1.0000000E+00   1.0380000E-01
       11   -1    0    0    0    0  0.00000000000E+00  0.00000000000E+00  2.49999999240E+02  2.49999999240E+02  0.00000000000E+00  0.0000E+00  9.0
      -11   -1    0    0    0    0  0.00000000000E+00  0.00000000000E+00 -4.67429476920E+01  4.67429476920E+01  0.00000000000E+00  0.0000E+00  9.0
       24    2    1    2    0    0  6.38216544143E+01 -8.58742400944E+00  6.14174583218E+01  1.18989866432E+02  7.89907380863E+01  4.6245E-14  9.0
      -24    2    1    2    0    0 -6.38216544143E+01  8.58742400944E+00  1.41839593229E+02  1.77753080502E+02  8.56197406988E+01  6.3940E-14  9.0
       -1    1    3    3    0  500 -1.11089066773E+01  3.25118077431E+00  3.78090561883E+01  3.95411521562E+01  0.00000000000E+00  0.0000E+00  9.0
        2    1    3    3  500    0  7.49305610916E+01 -1.18386047838E+01  2.36084021335E+01  7.94487142755E+01  0.00000000000E+00  0.0000E+00  9.0
        1    1    4    4  504    0 -5.21202070688E+01  2.61655500875E+01  3.32556292472E+01  6.71348558717E+01  0.00000000000E+00  0.0000E+00  9.0
       -2    1    4    4    0  504 -1.17014473455E+01 -1.75781260781E+01  1.08583963982E+02  1.10618224631E+02  0.00000000000E+00  0.0000E+00  9.0
</event>
<event>
 8    1   5.1859766E+00   4.9460000E+02  -1.0000000E+00   9.3610000E-02
       11   -1    0    0    0    0  0.00000000000E+00  0.00000000000E+00  2.47072723930E+02  2.47072723930E+02  0.00000000000E+00  0.0000E+00  9.0
      -11   -1    0    0    0    0  0.00000000000E+00  0.00000000000E+00 -2.47553967620E+02  2.47553967620E+02  0.00000000000E+00  0.0000E+00  9.0
       24    2    1    2    0    0 -5.24358357988E+00 -7.28888362945E+00 -2.37410796525E+02  2.50656098949E+02  7.98997536935E+01  1.0618E-13  9.0
      -24    2    1    2    0    0  5.24358357988E+00  7.28888362945E+00  2.36929552835E+02  2.43970592605E+02  5.74927304640E+01  5.1707E-14  9.0
       -3    1    3    3    0  500 -3.50279945939E+01  1.78437094000E+01 -1.47750446178E+02  1.52890656078E+02  0.00000000000E+00  0.0000E+00  9.0
        4    1    3    3  500    0  2.97844110140E+01 -2.51325930295E+01 -8.96603503477E+01  9.77654428707E+01  5.87386917370E-01  0.0000E+00  9.0
        3    1    4    4  504    0  9.63059878099E-03  3.12089023042E+01  1.66603770326E+02  1.69501657699E+02  0.00000000000E+00  0.0000E+00  9.0
       -4    1    4    4    0  504  5.23395298110E+00 -2.39200186748E+01  7.03257825095E+01  7.44689349069E+01  5.87386917370E-01  0.0000E+00  9.0
</event>
<event>
 8    1   5.1859766E+00   4.9710000E+02  -1.0000000E+00   9.3560000E-02
       11   -1    0    0    0    0  0.00000000000E+00  0.00000000000E+00  2.49986785690E+02  2.49986785690E+02  0.00000000000E+00  0.0000E+00  9.0
      -11   -1    0    0    0    0  0.00000000000E+00  0.00000000000E+00 -2.47114610130E+02  2.47114610130E+02  0.00000000000E+00  0.0000E+00  9.0
       24    2    1    2    0    0  2.36325761068E+01  1.16479137246E+01 -2.28362144607E+02  2.52425322589E+02  1.04283756390E+02  1.1623E-14  9.0
      -24    2    1    2    0    0 -2.36325761068E+01 -1.16479137246E+01  2.31234320167E+02  2.44676073236E+02  7.55175307028E+01  9.2341E-14  9.0
       -3    1    3    3    0  500 -2.60093321529E+01  4.07431652505E+01 -8.24210092223E+01  9.55495349800E+01  0.00000000000E+00  0.0000E+00  9.0
        4    1    3    3  500    0  4.96419082597E+01 -2.90952515259E+01 -1.45941135385E+02  1.56875787609E+02  5.87386917370E-01  0.0000E+00  9.0
       13    1    4    4    0    0 -3.58014373270E+01 -6.11981247530E+00  2.28065952078E+02  2.30940002358E+02  1.05700000000E-01  0.0000E+00  9.0
      -14    1    4    4    0    0  1.21688612202E+01 -5.52810124935E+00  3.16836808933E+00  1.37360708781E+01  0.00000000000E+00  0.0000E+00  9.0
</event>
<event>
 8    1   5.1859766E+00   3.3630000E+02  -1.0000000E+00   9.8100000E-02
       11   -1    0    0    0    0  0.00000000000E+00  0.00000000000E+00  2.49948402710E+02  2.49948402710E+02  0.00000000000E+00  0.0000E+00  9.0
      -11   -1    0    0    0    0  0.00000000000E+00  0.00000000000E+00 -1.13091618380E+02  1.13091618380E+02  0.00000000000E+00  0.0000E+00  9.0
       24    2    1    2    0    0 -7.49862811410E+01  2.30396118503E+01 -6.59438538107E+01  1.30997192231E+02  8.15959952652E+01  1.5247E-13  9.0
      -24    2    1    2    0    0  7.49862811410E+01 -2.30396118503E+01  2.02800638138E+02  2.32042828865E+02  8.10062313952E+01  2.9756E-13  9.0
       -1    1    3    3    0  500 -6.85598012049E+01  3.58581750082E+01 -1.59635145546E+01  7.90005623594E+01  0.00000000000E+00  0.0000E+00  9.0
        2    1    3    3  500    0 -6.42647993610E+00 -1.28185631579E+01 -4.99803392561E+01  5.19966298711E+01  0.00000000000E+00  0.0000E+00  9.0
       13    1    4    4    0    0  8.92780340699E+01 -2.81731232684E+01  1.91350035941E+02  2.13023800710E+02  1.05700000000E-01  0.0000E+00  9.0
      -14    1    4    4    0    0 -1.42917529289E+01  5.13351141815E+00  1.14506021972E+01  1.90190281544E+01  0.00000000000E+00  0.0000E+00  9.0
</event>
<event>
 8    1   5.1859766E+00   4.9670000E+02  -1.0000000E+00   9.3560000E-02
       11   -1    0    0    0    0  0.00000000000E+00  0.00000000000E+00  2.49252664250E+02  2.49252664250E+02  0.00000000000E+00  0.0000E+00  9.0
      -11   -1    0    0    0    0  0.00000000000E+00  0.00000000000E+00 -2.47486161400E+02  2.47486161400E+02  0.00000000000E+00  0.0000E+00  9.0
       24    2    1    2    0    0  1.77504069481E+02  1.02949361076E+02 -1.14505940741E+02  2.47905932820E+02  7.89903502612E+01  2.6324E-13  9.0
      -24    2    1    2    0    0 -1.77504069481E+02 -1.02949361076E+02  1.16272443581E+02  2.48832892835E+02  7.93237782272E+01  6.9833E-14  9.0
       -3    1    3    3    0  500  1.79976841299E+02  8.75319281225E+01 -1.17382893607E+02  2.32017769915E+02  0.00000000000E+00  0.0000E+00  9.0
        4    1    3    3  500    0 -2.47277181789E+00  1.54174329533E+01  2.87695286585E+00  1.58881629056E+01  5.87386917370E-01  0.0000E+00  9.0
        1    1    4    4  504    0 -1.36806003011E+02 -1.03811026173E+02  6.56051034487E+01  1.83838628186E+02  0.00000000000E+00  0.0000E+00  9.0
       -2    1    4    4    0  504 -4.06980664699E+01  8.61665097496E-01  5.06673401325E+01  6.49942646487E+01  0.00000000000E+00  0.0000E+00  9.0
</event>
<event>
 8    1   5.1859766E+00   4.6900000E+02  -1.0000000E+00   9.4200000E-02
       11   -1    0    0    0    0  0.00000000000E+00  0.00000000000E+00  2.19998347050E+02  2.19998347050E+02  0.00000000000E+00  0.0000E+00  9.0
      -11   -1    0    0    0    0  0.00000000000E+00  0.00000000000E+00 -2.50000000000E+02  2.50000000000E+02  0.00000000000E+00  0.0000E+00  9.0
       24    2    1    2    0    0  2.09192462831E+01  2.29283146314E+01 -2.37854033444E+02  2.54229374498E+02  8.42301083645E+01  1.7013E-14  9.0
      -24    2    1    2    0    0 -2.09192462831E+01 -2.29283146314E+01  2.07852380504E+02  2.15768972554E+02  4.88908473932E+01  9.1260E-14  9.0
       -1    1    3    3    0  500  3.05111466943E+01 -2.52271222378E+01 -8.69687589210E+01  9.55557575306E+01  0.00000000000E+00  0.0000E+00  9.0
        2    1    3    3  500    0 -9.59190041119E+00  4.81554368692E+01 -1.50885274523E+02  1.58673616967E+02  0.00000000000E+00  0.0000E+00  9.0
        3    1    4    4  504    0 -1.62891129142E+01 -3.62884901053E+01  1.11494911386E+02  1.18377806107E+02  0.00000000000E+00  0.0000E+00  9.0
       -4    1    4    4    0  504 -4.63013336896E+00  1.33601754739E+01  9.63574691177E+01  9.73911664468E+01  5.87386917370E-01  0.0000E+00  9.0
</event>
<event>
 8    1   5.1859766E+00   4.9430000E+02  -1.0000000E+00   9.3620000E-02
       11   -1    0    0    0    0  0.00000000000E+00  0.00000000000E+00  2.44353166060E+02  2.44353166060E+02  0.00000000000E+00  0.0000E+00  9.0
      -11   -1    0    0    0    0  0.00000000000E+00  0.00000000000E+00 -2.49988572810E+02  2.49988572810E+02  0.00000000000E+00  0.0000E+00  9.0
       24    2    1    2    0    0 -1.39888722136E+02 -1.93702838697E+01 -1.87398341347E+02  2.48074780191E+02  8.04915880659E+01  1.6910E-13  9.0
      -24    2    1    2    0    0  1.39888722136E+02  1.93702838697E+01  1.81762934597E+02  2.46266958679E+02  8.75533441162E+01  1.9244E-13  9.0
       -1    1    3    3    0  500 -1.71806530721E+00  4.49553013529E+00 -5.50563694043E+01  5.52663129907E+01  0.00000000000E+00  0.0000E+00  9.0
        2    1    3    3  500    0 -1.38170656829E+02 -2.38658140050E+01 -1.32341971943E+02  1.92808467201E+02  0.00000000000E+00  0.0000E+00  9.0
        3    1    4    4  504    0 -1.09168149735E+01  1.02590076755E+00  2.42046168354E+00  1.12288893623E+01  0.00000000000E+00  0.0000E+00  9.0
       -4    1    4    4    0  504  1.50805537109E+02  1.83443831021E+01  1.79342472913E+02  2.35038069317E+02  5.87386917370E-01  0.0000E+00  9.0
</event>
<event>
 8    1   5.1859766E+00   4.9790000E+02  -1.0000000E+00   9.3540000E-02
       11   -1    0    0    0    0  0.00000000000E+00  0.00000000000E+00  2.49228266120E+02  2.49228266120E+02  0.00000000000E+00  0.0000E+00  9.0
      -11   -1    0    0    0    0  0.00000000000E+00  0.00000000000E+00 -2.48633596840E+02  2.48633596840E+02  0.00000000000E+00  0.0000E+00  9.0
       24    2    1    2    0    0  8.95301286473E+01  3.79699536882E+01 -2.13925205035E+02  2.48248783581E+02  8.00381401696E+01  5.7267E-14  9.0
      -24    2    1    2    0    0 -8.95301286473E+01 -3.79699536882E+01  2.14519874305E+02  2.49613079371E+02  8.26471512089E+01  4.4635E-14  9.0
       -1    1    3    3    0  500  4.66079633691E+01 -7.95146773333E+00 -3.56459388176E+01  5.92128452510E+01  0.00000000000E+00  0.0000E+00  9.0
        2    1    3    3  500    0  4.29221652782E+01  4.59214214216E+01 -1.78279266217E+02  1.89035938330E+02  0.00000000000E+00  0.0000E+00  9.0
        1    1    4    4  504    0 -2.69443754058E+01 -2.09919708452E+01  1.63697199328E+02  1.67222711597E+02  0.00000000000E+00  0.0000E+00  9.0
       -2    1    4    4    0  504 -6.25857532415E+01 -1.69779828430E+01  5.08226749762E+01  8.23903677742E+01  0.00000000000E+00  0.0000E+00  9.0
</event>
<event>
 8    1   5.1859766E+00   4.5630000E+02  -1.0000000E+00   9.4510000E-02
       11   -1    0    0    0    0  0.00000000000E+00  0.00000000000E+00  2.50000000000E+02  2.50000000000E+02  0.00000000000E+00  0.0000E+00  9.0
      -11   -1    0    0    0    0  0.00000000000E+00  0.00000000000E+00 -2.08212607120E+02  2.08212607120E+02  0.00000000000E+00  0.0000E+00  9.0
       24    2    1    2    0    0  1.34788753860E+01  1.17781933883E+01 -1.93795492568E+02  2.09674088672E+02  7.80136180383E+01  1.1048E-14  9.0
      -24    2    1    2    0    0 -1.34788753860E+01 -1.17781933883E+01  2.35582885448E+02  2.48538518445E+02  7.71472184447E+01  1.4179E-13  9.0
       -3    1    3    3    0  500  4.00176569226E+01 -1.24849407696E+01 -7.98041296088E+01  9.01442494794E+01  0.00000000000E+00  0.0000E+00  9.0
        4    1    3    3  500    0 -2.65387815366E+01  2.42631341579E+01 -1.13991362959E+02  1.19529839192E+02  5.87386917370E-01  0.0000E+00  9.0
        3    1    4    4  504    0 -5.19529599098E+00  4.47551308816E+00  2.29049561411E+02  2.29152182841E+02  0.00000000000E+00  0.0000E+00  9.0
       -4    1    4    4    0  504 -8.28357939505E+00 -1.62537064765E+01  6.53332403661E+00  1.93863356046E+01  5.87386917370E-01  0.0000E+00  9.0
</event>
<event>
 8    1   5.1859766E+00   4.9420000E+02  -1.0000000E+00   9.3620000E-02
       11   -1    0    0    0    0  0.00000000000E+00  0.00000000000E+00  2.44195971970E+02  2.44195971970E+02  0.00000000000E+00  0.0000E+00  9.0
      -11   -1    0    0    0    0  0.00000000000E+00  0.00000000000E+00 -2.49998492180E+02  2.49998492180E+02  0.00000000000E+00  0.0000E+00  9.0
       24    2    1    2    0    0 -1.76309729367E+01 -3.18659954287E+01 -2.33927769898E+02  2.49716856175E+02  7.94355956568E+01  1.2590E-13  9.0
      -24    2    1    2    0    0  1.76309729367E+01  3.18659954287E+01  2.28125249688E+02  2.44477607979E+02  8.00117390551E+01  1.1656E-13  9.0
       -1    1    3    3    0  500 -4.93425262053E+01 -1.65077663515E+01 -1.45843326611E+02  1.54846592339E+02  0.00000000000E+00  0.0000E+00  9.0
        2    1    3    3  500    0  3.17115532686E+01 -1.53582290773E+01 -8.80844432873E+01  9.48702638361E+01  0.00000000000E+00  0.0000E+00  9.0
        3    1    4    4  504    0 -2.10897117632E+01 -1.48678488920E+01  8.95564822171E+01  9.31997445277E+01  0.00000000000E+00  0.0000E+00  9.0
       -4    1    4    4    0  504  3.87206846999E+01  4.67338443208E+01  1.38568767471E+02  1.51277863451E+02  5.87386917370E-01  0.0000E+00  9.0
</event>
<event>
 8    1   5.1859766E+00   4.9430000E+02  -1.0000000E+00   9.3620000E-02
       11   -1    0    0    0    0  0.00000000000E+00  0.00000000000E+00  2.49863432660E+02  2.49863432660E+02  0.00000000000E+00  0.0000E+00  9.0
      -11   -1    0    0    0    0  0.00000000000E+00  0.00000000000E+00 -2.44436518200E+02  2.44436518200E+02  0.00000000000E+00  0.0000E+00  9.0
       24    2    1    2    0    0  8.44247437625E-01 -9.70228829513E+00 -2.25363060719E+02  2.39734033988E+02  8.11729681820E+01  2.5560E-13  9.0
      -24    2    1    2    0    0 -8.44247437625E-01  9.70228829513E+00  2.30789975189E+02  2.54565916864E+02  1.06981055468E+02  2.8308E-14  9.0
       -1    1    3    3    0  500 -2.30438614863E+01  2.13813793792E+01 -4.33565652365E+01  5.35534750083E+01  0.00000000000E+00  0.0000E+00  9.0
        2    1    3    3  500    0  2.38881089239E+01 -3.10836676743E+01 -1.82006495483E+02  1.86180558980E+02  0.00000000000E+00  0.0000E+00  9.0
        1    1    4    4  504    0 -1.08340343767E+01  5.61780278702E+01  1.53633014169E+02  1.63940385991E+02  0.00000000000E+00  0.0000E+00  9.0
       -2    1    4    4    0  504  9.98978693907E+00 -4.64757395751E+01  7.71569610200E+01  9.06255308728E+01  0.00000000000E+00  0.0000E+00  9.0
</event>
<event>
 8    1   5.1859766E+00   4.9300000E+02  -1.0000000E+00   9.3650000E-02
       11   -1    0    0    0    0  0.00000000000E+00  0.00000000000E+00  2.43053549650E+02  2.43053549650E+02  0.00000000000E+00  0.0000E+00  9.0
      -11   -1    0    0    0    0  0.00000000000E+00  0.00000000000E+00 -2.49999999410E+02  2.49999999410E+02  0.00000000000E+00  0.0000E+00  9.0
       24    2    1    2    0    0 -2.40837031091E+01 -1.82072419543E+01 -2.35668080523E+02  2.48966072708E+02  7.43850305314E+01  7.7330E-15  9.0
      -24    2    1    2    0    0  2.40837031091E+01  1.82072419543E+01  2.28721630763E+02  2.44087476364E+02  7.97093678557E+01  9.4605E-14  9.0
       -1    1    3    3    0  500  8.64732883801E+00 -1.20989383061E+00  1.57576359690E+00  8.87260784817E+00  0.00000000000E+00  0.0000E+00  9.0
        2    1    3    3  500    0 -3.27310319471E+01 -1.69973481237E+01 -2.37243844120E+02  2.40093464859E+02  0.00000000000E+00  0.0000E+00  9.0
        1    1    4    4  504    0  4.51890447162E+01 -1.31115380596E+01  1.38737395500E+02  1.46499239257E+02  0.00000000000E+00  0.0000E+00  9.0
       -2    1    4    4    0  504 -2.11053416070E+01  3.13187800139E+01  8.99842352624E+01  9.75882371070E+01  0.00000000000E+00  0.0000E+00  9.0
</event>
<event>
 8    1   5.1859766E+00   4.7160000E+02  -1.0000000E+00   9.4140000E-02
       11   -1    0    0    0    0  0.00000000000E+00  0.00000000000E+00  2.46255414710E+02  2.46255414710E+02  0.00000000000E+00  0.0000E+00  9.0
      -11   -1    0    0    0    0  0.00000000000E+00  0.00000000000E+00 -2.25787442160E+02  2.25787442160E+02  0.00000000000E+00  0.0000E+00  9.0
       24    2    1    2    0    0  4.55318568462E+01 -9.08291013235E+01 -1.86790287053E+02  2.27542403289E+02  8.10052981110E+01  1.6758E-13  9.0
      -24    2    1    2    0    0 -4.55318568462E+01  9.08291013235E+01  2.07258259603E+02  2.44500453578E+02  8.06313214037E+01  1.0632E-13  9.0
       -1    1    3    3    0  500  1.86474513932E+01 -7.73133531988E+01 -1.79867471932E+02  1.96665679481E+02  0.00000000000E+00  0.0000E+00  9.0
        2    1    3    3  500    0  2.68844054530E+01 -1.35157481247E+01 -6.92281512070E+00  3.08767238082E+01  0.00000000000E+00  0.0000E+00  9.0
        1    1    4    4  504    0 -2.07653346066E+01  9.25622079334E+01  1.15605557972E+02  1.49544663873E+02  0.00000000000E+00  0.0000E+00  9.0
       -2    1    4    4    0  504 -2.47665222396E+01 -1.73310660987E+00  9.16527016306E+01  9.49557897053E+01  0.00000000000E+00  0.0000E+00  9.0
</event>
<event>
 8    1   5.1859766E+00   4.8250000E+02  -1.0000000E+00   9.3890000E-02
       11   -1    0    0    0    0  0.00000000000E+00  0.00000000000E+00  2.49829735780E+02  2.49829735780E+02  0.00000000000E+00  0.0000E+00  9.0
      -11   -1    0    0    0    0  0.00000000000E+00  0.00000000000E+00 -2.32965805430E+02  2.32965805430E+02  0.00000000000E+00  0.0000E+00  9.0
       24    2    1    2    0    0 -1.16298567539E+02  4.12350645644E+01 -1.83149746268E+02  2.33925260558E+02  7.71460342980E+01  5.5147E-14  9.0
      -24    2    1    2    0    0  1.16298567539E+02 -4.12350645644E+01  2.00013676618E+02  2.48870280656E+02  8.18856421976E+01  1.5567E-13  9.0
       -1    1    3    3    0  500 -8.97680024060E+01  6.32872762552E+01 -1.25818716058E+02  1.67014738578E+02  0.00000000000E+00  0.0000E+00  9.0
        2    1    3    3  500    0 -2.65305651332E+01 -2.20522116908E+01 -5.73310302097E+01  6.69105219801E+01  0.00000000000E+00  0.0000E+00  9.0
        1    1    4    4  504    0  6.34368025621E+01 -5.45072216368E+01  7.43925685599E+01  1.11935335738E+02  0.00000000000E+00  0.0000E+00  9.0
       -2    1    4    4    0  504  5.28617649772E+01  1.32721570724E+01  1.25621108058E+02  1.36934944918E+02  0.00000000000E+00  0.0000E+00  9.0
</event>
<event>
 8    1   5.1859766E+00   4.8240000E+02  -1.0000000E+00   9.3890000E-02
       11   -1    0    0    0    0  0.00000000000E+00  0.00000000000E+00  2.32701976200E+02  2.32701976200E+02  0.00000000000E+00  0.0000E+00  9.0
      -11   -1    0    0    0    0  0.00000000000E+00  0.00000000000E+00 -2.50000000000E+02  2.50000000000E+02  0.00000000000E+00  0.0000E+00  9.0
       24    2    1    2    0    0  1.38242928183E+00 -1.04663300632E+02 -2.10962961005E+02  2.48422693831E+02  7.90705146318E+01  3.8418E-14  9.0
      -24    2    1    2    0    0 -1.38242928183E+00  1.04663300632E+02  1.93664937215E+02  2.34279282373E+02  8.01520843955E+01  3.3231E-13  9.0
       -1    1    3    3    0  500 -7.90435981839E+00 -9.08564532591E+01 -9.65760807042E+01  1.32831898907E+02  0.00000000000E+00  0.0000E+00  9.0
        2    1    3    3  500    0  9.28678910022E+00 -1.38068473727E+01 -1.14386880301E+02  1.15590794924E+02  0.00000000000E+00  0.0000E+00  9.0
        3    1    4    4  504    0  8.71548645639E+00  8.37380483562E+00  9.59964699681E+01  9.67543412872E+01  0.00000000000E+00  0.0000E+00  9.0
       -4    1    4    4    0  504 -1.00979157382E+01  9.62894957962E+01  9.76684672471E+01  1.37524941086E+02  5.87386917370E-01  0.0000E+00  9.0
</event>
<event>
 8    1   5.1859766E+00   4.9990000E+02  -1.0000000E+00   9.3490000E-02
       11   -1    0    0    0    0  0.00000000000E+00  0.00000000000E+00  2.49936718590E+02  2.49936718590E+02  0.00000000000E+00  0.0000E+00  9.0
      -11   -1    0    0    0    0  0.00000000000E+00  0.00000000000E+00 -2.49999876060E+02  2.49999876060E+02  0.00000000000E+00  0.0000E+00  9.0
       24    2    1    2    0    0 -6.20389696082E+01  2.17652204607E+02  7.06989282854E+01  2.50306770694E+02  8.02111281211E+01  8.4829E-14  9.0
      -24    2    1    2    0    0  6.20389696082E+01 -2.17652204607E+02 -7.07620857634E+01  2.49629823959E+02  7.80157696121E+01  1.8185E-13  9.0
       -1    1    3    3    0  500 -5.50780668628E+01  1.16613095715E+02  3.98051320519E+00  1.29027330543E+02  0.00000000000E+00  0.0000E+00  9.0
        2    1    3    3  500    0 -6.96090274539E+00  1.01039108891E+02  6.67184150802E+01  1.21279440151E+02  0.00000000000E+00  0.0000E+00  9.0
        3    1    4    4  504    0 -4.41363088508E+00 -5.41724079724E+01  1.04852980846E+01  5.53540549467E+01  0.00000000000E+00  0.0000E+00  9.0
       -4    1    4    4    0  504  6.64526004933E+01 -1.63479796634E+02 -8.12473838480E+01  1.94275769013E+02  5.87386917370E-01  0.0000E+00  9.0
</event>
<event>
 8    1   5.1859766E+00   4.7210000E+02  -1.0000000E+00   9.4130000E-02
       11   -1    0    0    0    0  0.00000000000E+00  0.00000000000E+00  2.23051829600E+02  2.23051829600E+02  0.00000000000E+00  0.0000E+00  9.0
      -11   -1    0    0    0    0  0.00000000000E+00  0.00000000000E+00 -2.49850690780E+02  2.49850690780E+02  0.00000000000E+00  0.0000E+00  9.0
       24    2    1    2    0    0 -6.52750572100E+00 -5.06102638632E+00 -2.35577805796E+02  2.49282209033E+02  8.10955907419E+01  9.9802E-14  9.0
      -24    2    1    2    0    0  6.52750572100E+00  5.06102638632E+00  2.08778944616E+02  2.23620311361E+02  7.96817019095E+01  4.3197E-14  9.0
       -1    1    3    3    0  500  2.14970100476E+01  5.07918770625E+00 -2.06385692106E+02  2.07564383975E+02  0.00000000000E+00  0.0000E+00  9.0
        2    1    3    3  500    0 -2.80245157686E+01 -1.01402140926E+01 -2.91921136897E+01  4.17178250582E+01  0.00000000000E+00  0.0000E+00  9.0
        3    1    4    4  504    0 -2.68522812332E+01  1.42835453439E-01  1.70454059145E+02  1.72556227614E+02  0.00000000000E+00  0.0000E+00  9.0
       -4    1    4    4    0  504  3.33797869542E+01  4.91819093288E+00  3.83248854711E+01  5.10640837470E+01  5.87386917370E-01  0.0000E+00  9.0
</event>
<event>
 8    1   5.1859766E+00   3.4760000E+02  -1.0000000E+00   9.7700000E-02
       11   -1    0    0    0    0  0.00000000000E+00  0.00000000000E+00  2.49998343070E+02  2.49998343070E+02  0.00000000000E+00  0.0000E+00  9.0
      -11   -1    0    0    0    0  0.00000000000E+00  0.00000000000E+00 -1.20811274020E+02  1.20811274020E+02  0.00000000000E+00  0.0000E+00  9.0
       24    2    1    2    0    0 -4.64038702114E+01  2.06625368051E+01 -8.94854704469E+01  1.30308306624E+02  7.99521466654E+01  1.7873E-14  9.0
      -24    2    1    2    0    0  4.64038702114E+01 -2.06625368051E+01  2.18672539486E+02  2.40501310462E+02  8.62724823517E+01  2.4526E-15  9.0
       -3    1    3    3    0  500 -4.42083762887E+01  3.34634933235E+01 -9.94945659947E+01  1.13900634686E+02  0.00000000000E+00  0.0000E+00  9.0
        4    1    3    3  500    0 -2.19549392273E+00 -1.28009565184E+01  1.00090955478E+01  1.64076719380E+01  5.87386917370E-01  0.0000E+00  9.0
       13    1    4    4    0    0  6.39581080258E-01 -3.73603232161E+01  3.76745307512E+01  5.30620792524E+01  1.05700000000E-01  0.0000E+00  9.0
      -14    1    4    4    0    0  4.57642891311E+01  1.66977864110E+01  1.80998008735E+02  1.87439231210E+02  0.00000000000E+00  0.0000E+00  9.0
</event>
<event>
 8    1   5.1859766E+00   4.8200000E+02  -1.0000000E+00   9.3900000E-02
       11   -1    0    0    0    0  0.00000000000E+00  0.00000000000E+00  2.32901209000E+02  2.32901209000E+02  0.00000000000E+00  0.0000E+00  9.0
      -11   -1    0    0    0    0  0.00000000000E+00  0.00000000000E+00 -2.49349496720E+02  2.49349496720E+02  0.00000000000E+00  0.0000E+00  9.0
       24    2    1    2    0    0  4.50321083463E+01  1.19641027957E+01 -2.30771771790E+02  2.48691967003E+02  8.01314748353E+01  2.6391E-14  9.0
      -24    2    1    2    0    0 -4.50321083463E+01 -1.19641027957E+01  2.14323484070E+02  2.33558738714E+02  8.02751397882E+01  2.4948E-14  9.0
       -3    1    3    3    0  500  1.72376796847E+01 -1.51265377268E+01 -1.08498953985E+01  2.53706518377E+01  0.00000000000E+00  0.0000E+00  9.0
        4    1    3    3  500    0  2.77944286616E+01  2.70906405225E+01 -2.19921876391E+02  2.23321315166E+02  5.87386917370E-01  0.0000E+00  9.0
        1    1    4    4  504    0 -1.17187704388E+01  2.57060710344E+01  2.51782776865E+01  3.78427976752E+01  0.00000000000E+00  0.0000E+00  9.0
       -2    1    4    4    0  504 -3.33133379075E+01 -3.76701738301E+01  1.89145206383E+02  1.95715941039E+02  0.00000000000E+00  0.0000E+00  9.0
</event>
<event>
 8    1   5.1859766E+00   4.8780000E+02  -1.0000000E+00   9.3760000E-02
       11   -1    0    0    0    0  0.00000000000E+00  0.00000000000E+00  2.39748462820E+02  2.39748462820E+02  0.00000000000E+00  0.0000E+00  9.0
      -11   -1    0    0    0    0  0.00000000000E+00  0.00000000000E+00 -2.48115580660E+02  2.48115580660E+02  0.00000000000E+00  0.0000E+00  9.0
       24    2    1    2    0    0 -4.92813643020E+01 -4.77232203783E+01 -2.25510983578E+02  2.46005961772E+02  7.04100197593E+01  7.7507E-14  9.0
      -24    2    1    2    0    0  4.92813643020E+01  4.77232203783E+01  2.17143865738E+02  2.41858081700E+02  8.14721708630E+01  1.7415E-13  9.0
       -1    1    3    3    0  500 -4.59865562938E+01 -6.56041427036E+01 -1.84823033173E+02  2.01440364602E+02  0.00000000000E+00  0.0000E+00  9.0
        2    1    3    3  500    0 -3.29480800813E+00  1.78809223252E+01 -4.06879504050E+01  4.45655971706E+01  0.00000000000E+00  0.0000E+00  9.0
        1    1    4    4  504    0 -7.31261879217E+00 -1.65142803002E+01  2.01163462176E+01  2.70344822880E+01  0.00000000000E+00  0.0000E+00  9.0
       -2    1    4    4    0  504  5.65939830942E+01  6.42375006785E+01  1.97027519520E+02  2.14823599412E+02  0.00000000000E+00  0.0000E+00  9.0
</event>
<event>
 8    1   5.1859766E+00   4.9960000E+02  -1.0000000E+00   9.3500000E-02
       11   -1    0    0    0    0  0.00000000000E+00  0.00000000000E+00  2.49744620100E+02  2.49744620100E+02  0.00000000000E+00  0.0000E+00  9.0
      -11   -1    0    0    0    0  0.00000000000E+00  0.00000000000E+00 -2.49877729760E+02  2.49877729760E+02  0.00000000000E+00  0.0000E+00  9.0
       24    2    1    2    0    0 -1.31111317814E+01  2.92157874967E+01 -2.34189825984E+02  2.50271214389E+02  8.22516999327E+01  2.3605E-14  9.0
      -24    2    1    2    0    0  1.31111317814E+01 -2.92157874967E+01  2.34056716314E+02  2.49351135466E+02  7.97996133512E+01  1.1987E-15  9.0
       -1    1    3    3    0  500 -3.65342920209E+01  7.87325283281E+00 -2.00761058148E+02  2.04210051350E+02  0.00000000000E+00  0.0000E+00  9.0
        2    1    3    3  500    0  2.34231602396E+01  2.13425346639E+01 -3.34287678353E+01  4.60611630387E+01  0.00000000000E+00  0.0000E+00  9.0
        1    1    4    4  504    0  3.97034705022E+01 -3.70440781396E+01  1.87120226122E+02  1.94839955654E+02  0.00000000000E+00  0.0000E+00  9.0
       -2    1    4    4    0  504 -2.65923387208E+01  7.82829064283E+00  4.69364901917E+01  5.45111798125E+01  0.00000000000E+00  0.0000E+00  9.0
</event>
<event>
 8    1   5.1859766E+00   4.9520000E+02  -1.0000000E+00   9.3600000E-02
       11   -1    0    0    0    0  0.00000000000E+00  0.00000000000E+00  2.45248657690E+02  2.45248657690E+02  0.00000000000E+00  0.0000E+00  9.0
      -11   -1    0    0    0    0  0.00000000000E+00  0.00000000000E+00 -2.49941167410E+02  2.49941167410E+02  0.00000000000E+00  0.0000E+00  9.0
       24    2    1    2    0    0 -5.86946937736E+01 -4.37956690706E+01 -2.24703651343E+02  2.49656862990E+02  8.04592480977E+01  2.8791E-14  9.0
      -24    2    1    2    0    0  5.86946937736E+01  4.37956690706E+01  2.20011141613E+02  2.45532962115E+02  8.07366418958E+01  2.4368E-14  9.0
       -3    1    3    3    0  500 -5.15717400957E+01  8.01720865669E+00 -1.46997351250E+02  1.55987631835E+02  0.00000000000E+00  0.0000E+00  9.0
        4    1    3    3  500    0 -7.12295367786E+00 -5.18128777273E+01 -7.77063000935E+01  9.36692311545E+01  5.87386917370E-01  0.0000E+00  9.0
        3    1    4    4  504    0  4.03066128484E+01  1.07147017393E+01  1.96711628076E+02  2.01084292010E+02  0.00000000000E+00  0.0000E+00  9.0
       -4    1    4    4    0  504  1.83880809252E+01  3.30809673313E+01  2.32995135368E+01  4.44486701053E+01  5.87386917370E-01  0.0000E+00  9.0
</event>
<event>
 8    1   5.1859766E+00   4.5370000E+02  -1.0000000E+00   9.4580000E-02
       11   -1    0    0    0    0  0.00000000000E+00  0.00000000000E+00  2.28775597380E+02  2.28775597380E+02  0.00000000000E+00  0.0000E+00  9.0
      -11   -1    0    0    0    0  0.00000000000E+00  0.00000000000E+00 -2.24909464050E+02  2.24909464050E+02  0.00000000000E+00  0.0000E+00  9.0
       24    2    1    2    0    0 -5.23071274431E+00  7.29193090415E+01 -1.96770123025E+02  2.25500480142E+02  8.23856737661E+01  1.7522E-13  9.0
      -24    2    1    2    0    0  5.23071274431E+00 -7.29193090415E+01  2.00636256355E+02  2.28184581287E+02  8.04282897114E+01  2.5981E-15  9.0
       -1    1    3    3    0  500 -3.00451162673E+01  6.85174937720E+01 -9.64618091550E+01  1.22074717242E+02  0.00000000000E+00  0.0000E+00  9.0
        2    1    3    3  500    0  2.48144035229E+01  4.40181526945E+00 -1.00308313870E+02  1.03425762899E+02  0.00000000000E+00  0.0000E+00  9.0
        1    1    4    4  504    0 -8.79096563640E+00 -8.15659290965E+00  1.32853563356E+02  1.33393704428E+02  0.00000000000E+00  0.0000E+00  9.0
       -2    1    4    4    0  504  1.40216783807E+01 -6.47627161318E+01  6.77826929992E+01  9.47908768585E+01  0.00000000000E+00  0.0000E+00  9.0
</event>
<event>
 8    1   5.1859766E+00   2.8670000E+02  -1.0000000E+00   1.0010000E-01
       11   -1    0    0    0    0  0.00000000000E+00  0.00000000000E+00  8.35371732240E+01  8.35371732240E+01  0.00000000000E+00  0.0000E+00  9.0
      -11   -1    0    0    0    0  0.00000000000E+00  0.00000000000E+00 -2.45911889440E+02  2.45911889440E+02  0.00000000000E+00  0.0000E+00  9.0
       24    2    1    2    0    0 -9.13298957198E+01  6.18222565393E+01 -1.36456008749E+02  1.90977560524E+02  7.54257584941E+01  1.9063E-13  9.0
      -24    2    1    2    0    0  9.13298957198E+01 -6.18222565393E+01 -2.59187074644E+01  1.38471502137E+02  7.96205768101E+01  7.5859E-14  9.0
       -1    1    3    3    0  500 -7.39753859739E+01  7.40266729798E+01 -1.33385161575E+02  1.69540282443E+02  0.00000000000E+00  0.0000E+00  9.0
        2    1    3    3  500    0 -1.73545097458E+01 -1.22044164404E+01 -3.07084717350E+00  2.14372780812E+01  0.00000000000E+00  0.0000E+00  9.0
        3    1    4    4  504    0  8.04950042972E+01 -3.83007895348E+01 -5.07599971302E+01  1.02581545633E+02  0.00000000000E+00  0.0000E+00  9.0
       -4    1    4    4    0  504  1.08348914226E+01 -2.35214670045E+01  2.48412896659E+01  3.58899565037E+01  5.87386917370E-01  0.0000E+00  9.0
</event>
<event>
 8    1   5.1859766E+00   4.7660000E+02  -1.0000000E+00   9.4020000E-02
       11   -1    0    0    0    0  0.00000000000E+00  0.00000000000E+00  2.27179633620E+02  2.27179633620E+02  0.00000000000E+00  0.0000E+00  9.0
      -11   -1    0    0    0    0  0.00000000000E+00  0.00000000000E+00 -2.49997278790E+02  2.49997278790E+02  0.00000000000E+00  0.0000E+00  9.0
       24    2    1    2    0    0  2.20655884143E+00 -1.64484353533E+01 -2.36477590657E+02  2.48581295890E+02  7.48036754165E+01  1.1102E-13  9.0
      -24    2    1    2    0    0 -2.20655884143E+00  1.64484353533E+01  2.13659945487E+02  2.28595616508E+02  7.95610687053E+01  1.8940E-14  9.0
       -3    1    3    3    0  500  1.56122322362E+01  1.94311324526E+01 -3.20823949983E+01  4.06274632805E+01  0.00000000000E+00  0.0000E+00  9.0
        4    1    3    3  500    0 -1.34056733948E+01 -3.58795678059E+01 -2.04395195659E+02  2.07953832610E+02  5.87386917370E-01  0.0000E+00  9.0
        3    1    4    4  504    0 -2.87415350367E+01  2.82440660342E+01  6.04031980440E+01  7.26109457062E+01  0.00000000000E+00  0.0000E+00  9.0
       -4    1    4    4    0  504  2.65349761953E+01 -1.17956306809E+01  1.53256747443E+02  1.55984670802E+02  5.87386917370E-01  0.0000E+00  9.0
</event>
<event>
 8    1   5.1859766E+00   4.9320000E+02  -1.0000000E+00   9.3640000E-02
       11   -1    0    0    0    0  0.00000000000E+00  0.00000000000E+00  2.43282884050E+02  2.43282884050E+02  0.00000000000E+00  0.0000E+00  9.0
      -11   -1    0    0    0    0  0.00000000000E+00  0.00000000000E+00 -2.49981001290E+02  2.49981001290E+02  0.00000000000E+00  0.0000E+00  9.0
       24    2    1    2    0    0 -2.32211871813E+01  7.26871965682E+00 -2.35311204327E+02  2.49869677070E+02  8.04452286839E+01  3.1845E-14  9.0
      -24    2    1    2    0    0  2.32211871813E+01 -7.26871965682E+00  2.28613087087E+02  2.43394208268E+02  7.99045631458E+01  2.1959E-13  9.0
       -3    1    3    3    0  500 -1.06132569514E+01  2.11360249947E+01 -2.28801521205E+02  2.30020670552E+02  0.00000000000E+00  0.0000E+00  9.0
        4    1    3    3  500    0 -1.26079302299E+01 -1.38673053379E+01 -6.50968312180E+00  1.98490065180E+01  5.87386917370E-01  0.0000E+00  9.0
        1    1    4    4  504    0 -1.27519436269E+01 -3.45236142015E+01  1.26653882081E+02  1.31892751317E+02  0.00000000000E+00  0.0000E+00  9.0
       -2    1    4    4    0  504  3.59731308081E+01  2.72548945447E+01  1.01959205005E+02  1.11501456951E+02  0.00000000000E+00  0.0000E+00  9.0
</event>
<event>
 8    1   5.1859766E+00   4.6800000E+02  -1.0000000E+00   9.4230000E-02
       11   -1    0    0    0    0  0.00000000000E+00  0.00000000000E+00  2.20342699410E+02  2.20342699410E+02  0.00000000000E+00  0.0000E+00  9.0
      -11   -1    0    0    0    0  0.00000000000E+00  0.00000000000E+00 -2.48529215200E+02  2.48529215200E+02  0.00000000000E+00  0.0000E+00  9.0
       24    2    1    2    0    0  1.28290865900E+02 -1.58438449465E+01 -1.92118312363E+02  2.45017912163E+02  8.00921821355E+01  5.4060E-14  9.0
      -24    2    1    2    0    0 -1.28290865900E+02  1.58438449465E+01  1.63931796573E+02  2.23854002454E+02  8.07923683957E+01  8.2712E-15  9.0
       -1    1    3    3    0  500  1.14298140791E+02 -1.51592454130E+01 -1.02381614333E+02  1.54194236803E+02  0.00000000000E+00  0.0000E+00  9.0
        2    1    3    3  500    0  1.39927251087E+01 -6.84599533501E-01 -8.97366980303E+01  9.08236753598E+01  0.00000000000E+00  0.0000E+00  9.0
        1    1    4    4  504    0 -1.29699017435E+02 -2.27385041539E+00  1.21666187554E+02  1.77847312921E+02  0.00000000000E+00  0.0000E+00  9.0
       -2    1    4    4    0  504  1.40815153583E+00  1.81176953618E+01  4.22656090199E+01  4.60066895331E+01  0.00000000000E+00  0.0000E+00  9.0
</event>
<event>
 8    1   5.1859766E+00   4.9880000E+02  -1.0000000E+00   9.3520000E-02
       11   -1    0    0    0    0  0.00000000000E+00  0.00000000000E+00  2.49999999580E+02  2.49999999580E+02  0.00000000000E+00  0.0000E+00  9.0
      -11   -1    0    0    0    0  0.00000000000E+00  0.00000000000E+00 -2.48782176810E+02  2.48782176810E+02  0.00000000000E+00  0.0000E+00  9.0
       24    2    1    2    0    0  2.39423290607E+01  7.55181253773E+01 -2.21160250682E+02  2.48040943585E+02  7.96004449203E+01  1.2604E-14  9.0
      -24    2    1    2    0    0 -2.39423290607E+01 -7.55181253773E+01  2.22378073452E+02  2.50741232797E+02  8.45158913508E+01  1.1289E-14  9.0
      -13    1    3    3    0    0  3.01427444145E+01  1.95255966413E+01 -2.45106267734E+01  4.34812139015E+01  1.05700000000E-01  0.0000E+00  9.0
       14    1    3    3    0    0 -6.20041535377E+00  5.59925287360E+01 -1.96649623909E+02  2.04559729684E+02  0.00000000000E+00  0.0000E+00  9.0
        1    1    4    4  500    0  3.03233360056E+01 -3.75210461676E+01  1.12980588030E+02  1.22849285238E+02  0.00000000000E+00  0.0000E+00  9.0
       -2    1    4    4    0  500 -5.42656650663E+01 -3.79970792097E+01  1.09397485422E+02  1.27891947558E+02  0.00000000000E+00  0.0000E+00  9.0
</event>
<event>
 8    1   5.1859766E+00   4.8130000E+02  -1.0000000E+00   9.3920000E-02
       11   -1    0    0    0    0  0.00000000000E+00  0.00000000000E+00  2.31610407990E+02  2.31610407990E+02  0.00000000000E+00  0.0000E+00  9.0
      -11   -1    0    0    0    0  0.00000000000E+00  0.00000000000E+00 -2.49999985780E+02  2.49999985780E+02  0.00000000000E+00  0.0000E+00  9.0
       24    2    1    2    0    0 -1.16961073481E+02 -2.00892074911E+00 -2.03726118815E+02  2.48118160368E+02  7.98395988502E+01  2.3436E-14  9.0
      -24    2    1    2    0    0  1.16961073481E+02  2.00892074911E+00  1.85336541025E+02  2.33492233398E+02  8.05298773477E+01  1.6339E-13  9.0
       -1    1    3    3    0  500 -9.25422220402E+01 -3.59156649367E+01 -1.53249040245E+02  1.82590432893E+02  0.00000000000E+00  0.0000E+00  9.0
        2    1    3    3  500    0 -2.44188514407E+01  3.39067441876E+01 -5.04770785705E+01  6.55277274754E+01  0.00000000000E+00  0.0000E+00  9.0
        1    1    4    4  504    0  7.75464797449E+00 -2.65376436210E+01  2.41294352145E+01  3.66961951425E+01  0.00000000000E+00  0.0000E+00  9.0
       -2    1    4    4    0  504  1.09206425506E+02  2.85465643701E+01  1.61207105811E+02  1.96796038256E+02  0.00000000000E+00  0.0000E+00  9.0
</event>
<event>
 8    1   5.1859766E+00   4.9990000E+02  -1.0000000E+00   9.3490000E-02
       11   -1    0    0    0    0  0.00000000000E+00  0.00000000000E+00  2.49937816250E+02  2.49937816250E+02  0.00000000000E+00  0.0000E+00  9.0
      -11   -1    0    0    0    0  0.00000000000E+00  0.00000000000E+00 -2.49996914590E+02  2.49996914590E+02  0.00000000000E+00  0.0000E+00  9.0
       24    2    1    2    0    0 -4.79913058995E+01  7.71313997695E+00 -2.32454021392E+02  2.51679564677E+02  8.33371060473E+01  9.7398E-14  9.0
      -24    2    1    2    0    0  4.79913058995E+01 -7.71313997695E+00  2.32394923062E+02  2.48255166167E+02  7.25297821108E+01  5.4520E-14  9.0
       -3    1    3    3    0  500 -1.03683410405E+01 -1.48873595333E+00  4.62968105454E+00  1.14521953065E+01  0.00000000000E+00  0.0000E+00  9.0
        4    1    3    3  500    0 -3.76229648590E+01  9.20187593027E+00 -2.37083702447E+02  2.40227369371E+02  5.87386917370E-01  0.0000E+00  9.0
        1    1    4    4  504    0  1.23951604400E+01 -2.36738275254E+01  1.84770556167E+02  1.86692925785E+02  0.00000000000E+00  0.0000E+00  9.0
       -2    1    4    4    0  504  3.55961454594E+01  1.59606875484E+01  4.76243668956E+01  6.15622403815E+01  0.00000000000E+00  0.0000E+00  9.0
</event>
<event>
 8    1   5.1859766E+00   4.6720000E+02  -1.0000000E+00   9.4250000E-02
       11   -1    0    0    0    0  0.00000000000E+00  0.00000000000E+00  2.18309673930E+02  2.18309673930E+02  0.00000000000E+00  0.0000E+00  9.0
      -11   -1    0    0    0    0  0.00000000000E+00  0.00000000000E+00 -2.49999872970E+02  2.49999872970E+02  0.00000000000E+00  0.0000E+00  9.0
       24    2    1    2    0    0 -1.09592229614E+00 -3.09472412870E+01 -2.33805059645E+02  2.48973478957E+02  7.97750244088E+01  8.0536E-17  9.0
      -24    2    1    2    0    0  1.09592229614E+00  3.09472412870E+01  2.02114860615E+02  2.19336067938E+02  7.93659941541E+01  5.6024E-14  9.0
       -3    1    3    3    0  500 -3.57195763149E+01 -1.40013351316E+01 -1.71230763109E+02  1.75476208509E+02  0.00000000000E+00  0.0000E+00  9.0
        4    1    3    3  500    0  3.46236540188E+01 -1.69459061554E+01 -6.25742965358E+01  7.34972704485E+01  5.87386917370E-01  0.0000E+00  9.0
        1    1    4    4  504    0  2.24460077403E+01 -1.95065871645E+01  5.84552872853E+01  6.55846843241E+01  0.00000000000E+00  0.0000E+00  9.0
       -2    1    4    4    0  504 -2.13500854441E+01  5.04538284515E+01  1.43659573330E+02  1.53751383614E+02  0.00000000000E+00  0.0000E+00  9.0
</event>
<event>
 8    1   5.1859766E+00   4.9930000E+02  -1.0000000E+00   9.3510000E-02
       11   -1    0    0    0    0  0.00000000000E+00  0.00000000000E+00  2.49310554180E+02  2.49310554180E+02  0.00000000000E+00  0.0000E+00  9.0
      -11   -1    0    0    0    0  0.00000000000E+00  0.00000000000E+00 -2.49999999550E+02  2.49999999550E+02  0.00000000000E+00  0.0000E+00  9.0
       24    2    1    2    0    0 -1.34174455057E+01  1.38790298094E+01 -2.37110510632E+02  2.48283628250E+02  7.10683508496E+01  8.5294E-14  9.0
      -24    2    1    2    0    0  1.34174455057E+01 -1.38790298094E+01  2.36421065262E+02  2.51026925478E+02  8.21397705311E+01  4.1540E-15  9.0
       -1    1    3    3    0  500 -1.24519247003E+01  3.31296289108E+01 -5.66525214341E+01  6.67991835680E+01  0.00000000000E+00  0.0000E+00  9.0
        2    1    3    3  500    0 -9.65520805377E-01 -1.92505991014E+01 -1.80457989198E+02  1.81484444682E+02  0.00000000000E+00  0.0000E+00  9.0
       13    1    4    4    0    0  2.68729842547E+01 -2.63724563632E+01  2.27533476726E+02  2.30627747551E+02  1.05700000000E-01  0.0000E+00  9.0
      -14    1    4    4    0    0 -1.34555387490E+01  1.24934265538E+01  8.88758853662E+00  2.03991779265E+01  0.00000000000E+00  0.0000E+00  9.0
</event>
<event>
 8    1   5.1859766E+00   4.8290000E+02  -1.0000000E+00   9.3880000E-02
       11   -1    0    0    0    0  0.00000000000E+00  0.00000000000E+00  2.33144741030E+02  2.33144741030E+02  0.00000000000E+00  0.0000E+00  9.0
      -11   -1    0    0    0    0  0.00000000000E+00  0.00000000000E+00 -2.49999999950E+02  2.49999999950E+02  0.00000000000E+00  0.0000E+00  9.0
       24    2    1    2    0    0 -1.99574154873E+01 -1.09074340223E+01 -2.35994995820E+02  2.48814748508E+02  7.54842398991E+01  1.7703E-14  9.0
      -24    2    1    2    0    0  1.99574154873E+01  1.09074340223E+01  2.19139736900E+02  2.34329992474E+02  7.98188607689E+01  2.5519E-14  9.0
       -3    1    3    3    0  500  1.17633833335E+01  6.22350239386E+00 -3.80437636199E+00  1.38413311860E+01  0.00000000000E+00  0.0000E+00  9.0
        4    1    3    3  500    0 -3.17207988208E+01 -1.71309364162E+01 -2.32190619458E+02  2.34973417322E+02  5.87386917370E-01  0.0000E+00  9.0
        3    1    4    4  504    0 -1.47912136884E+01 -2.10322576824E+01  1.38708322209E+02  1.41071380923E+02  0.00000000000E+00  0.0000E+00  9.0
       -4    1    4    4    0  504  3.47486291758E+01  3.19396917048E+01  8.04314146909E+01  9.32586115507E+01  5.87386917370E-01  0.0000E+00  9.0
</event>
<event>
 8    1   5.1859766E+00   4.9460000E+02  -1.0000000E+00   9.3610000E-02
       11   -1    0    0    0    0  0.00000000000E+00  0.00000000000E+00  2.44640335270E+02  2.44640335270E+02  0.00000000000E+00  0.0000E+00  9.0
      -11   -1    0    0    0    0  0.00000000000E+00  0.00000000000E+00 -2.50000000000E+02  2.50000000000E+02  0.00000000000E+00  0.0000E+00  9.0
       24    2    1    2    0    0  3.79445857377E+01 -1.22615856875E+02 -1.98096257676E+02  2.49354510151E+02  8.03809957847E+01  7.4624E-14  9.0
      -24    2    1    2    0    0 -3.79445857377E+01  1.22615856875E+02  1.92736592946E+02  2.45285825120E+02  8.08906780808E+01  6.7514E-14  9.0
       -3    1    3    3    0  500 -2.24154724591E+01 -5.78586536688E+01 -6.87052996251E+01  9.25769701736E+01  0.00000000000E+00  0.0000E+00  9.0
        4    1    3    3  500    0  6.03600581968E+01 -6.47572032059E+01 -1.29390958051E+02  1.56777539978E+02  5.87386917370E-01  0.0000E+00  9.0
        3    1    4    4  504    0 -5.20271213840E+01  3.49958225413E+01  7.26809201140E+01  9.59898177072E+01  0.00000000000E+00  0.0000E+00  9.0
       -4    1    4    4    0  504  1.40825356463E+01  8.76200343334E+01  1.20055672832E+02  1.49296007413E+02  5.87386917370E-01  0.0000E+00  9.0
</event>
<event>
 8    1   5.1859766E+00   4.7260000E+02  -1.0000000E+00   9.4120000E-02
       11   -1    0    0    0    0  0.00000000000E+00  0.00000000000E+00  2.23309591500E+02  2.23309591500E+02  0.00000000000E+00  0.0000E+00  9.0
      -11   -1    0    0    0    0  0.00000000000E+00  0.00000000000E+00 -2.49999952790E+02  2.49999952790E+02  0.00000000000E+00  0.0000E+00  9.0
       24    2    1    2    0    0  2.16998625344E+02 -2.39716539875E+01  2.64219030570E+01  2.34274667682E+02  8.07679352233E+01  2.8299E-14  9.0
      -24    2    1    2    0    0 -2.16998625344E+02  2.39716539875E+01 -5.31122643540E+01  2.39034876603E+02  8.15703132981E+01  9.7766E-14  9.0
       -1    1    3    3    0  500 -2.66947584921E+00  1.33618701425E+00 -9.76584928175E+00  1.02119199586E+01  0.00000000000E+00  0.0000E+00  9.0
        2    1    3    3  500    0  2.19668101193E+02 -2.53078410018E+01  3.61877523387E+01  2.24062747723E+02  0.00000000000E+00  0.0000E+00  9.0
        1    1    4    4  504    0 -1.10625747187E+02 -1.25342491754E+00  1.28135384919E+01  1.11372410333E+02  0.00000000000E+00  0.0000E+00  9.0
       -2    1    4    4    0  504 -1.06372878157E+02  2.52250789050E+01 -6.59258028459E+01  1.27662466270E+02  0.00000000000E+00  0.0000E+00  9.0
</event>
<event>
 8    1   5.1859766E+00   4.9480000E+02  -1.0000000E+00   9.3610000E-02
       11   -1    0    0    0    0  0.00000000000E+00  0.00000000000E+00  2.49999993690E+02  2.49999993690E+02  0.00000000000E+00  0.0000E+00  9.0
      -11   -1    0    0    0    0  0.00000000000E+00  0.00000000000E+00 -2.44813843640E+02  2.44813843640E+02  0.00000000000E+00  0.0000E+00  9.0
       24    2    1    2    0    0 -1.61835328927E+02 -1.67048380300E+02 -2.37464485991E+01  2.47175811123E+02  8.02256363873E+01  1.3162E-13  9.0
      -24    2    1    2    0    0  1.61835328927E+02  1.67048380300E+02  2.89325986591E+01  2.47638026209E+02  7.99478687009E+01  1.9154E-13  9.0
       -3    1    3    3    0  500 -6.83645258828E+01 -1.11300837827E+02 -4.11721526495E+01  1.36955215505E+02  0.00000000000E+00  0.0000E+00  9.0
        4    1    3    3  500    0 -9.34708030442E+01 -5.57475424728E+01  1.74257040503E+01  1.10220595619E+02  5.87386917370E-01  0.0000E+00  9.0
        1    1    4    4  504    0  2.51845122684E+01  7.05282385837E+01 -1.08512384869E+01  7.56719331894E+01  0.00000000000E+00  0.0000E+00  9.0
       -2    1    4    4    0  504  1.36650816659E+02  9.65201417160E+01  3.97838371460E+01  1.71966093020E+02  0.00000000000E+00  0.0000E+00  9.0
</event>
<event>
 8    1   5.1859766E+00   5.0000000E+02  -1.0000000E+00   9.3490000E-02
       11   -1    0    0    0    0  0.00000000000E+00  0.00000000000E+00  2.50000000000E+02  2.50000000000E+02  0.00000000000E+00  0.0000E+00  9.0
      -11   -1    0    0    0    0  0.00000000000E+00  0.00000000000E+00 -2.50000000000E+02  2.50000000000E+02  0.00000000000E+00  0.0000E+00  9.0
       24    2    1    2    0    0 -1.98965573963E+01  2.54546697940E+01 -2.35826437165E+02  2.50494049223E+02  7.80342682392E+01  7.2411E-15  9.0
      -24    2    1    2    0    0  1.98965573963E+01 -2.54546697940E+01  2.35826437165E+02  2.49505950770E+02  7.48017231969E+01  5.1390E-14  9.0
       -3    1    3    3    0  500  2.10211225686E+00 -2.70542437581E+01 -8.77279242020E+01  9.18288607468E+01  0.00000000000E+00  0.0000E+00  9.0
        4    1    3    3  500    0 -2.19986696531E+01  5.25089135521E+01 -1.48098512963E+02  1.58665188476E+02  5.87386917370E-01  0.0000E+00  9.0
       13    1    4    4    0    0 -4.22093800571E+00  2.48835575291E+01  8.56745274670E+01  8.93148564470E+01  1.05700000000E-01  0.0000E+00  9.0
      -14    1    4    4    0    0  2.41174954020E+01 -5.03382273231E+01  1.50151909698E+02  1.60191094323E+02  0.00000000000E+00  0.0000E+00  9.0
</event>
<event>
 8    1   5.1859766E+00   4.8490000E+02  -1.0000000E+00   9.3830000E-02
       11   -1    0    0    0    0  0.00000000000E+00  0.00000000000E+00  2.49124053990E+02  2.49124053990E+02  0.00000000000E+00  0.0000E+00  9.0
      -11   -1    0    0    0    0  0.00000000000E+00  0.00000000000E+00 -2.35963487910E+02  2.35963487910E+02  0.00000000000E+00  0.0000E+00  9.0
       24    2    1    2    0    0 -1.05518416702E+01  8.23911500284E+00 -2.21899199903E+02  2.36434660866E+02  8.05162689312E+01  4.1368E-14  9.0
      -24    2    1    2    0    0  1.05518416702E+01 -8.23911500284E+00  2.35059765983E+02  2.48652881040E+02  7.99746040134E+01  1.1081E-13  9.0
       -3    1    3    3    0  500 -1.77609496511E+00  9.93008977356E+00 -2.26251808162E+02  2.26476581334E+02  0.00000000000E+00  0.0000E+00  9.0
        4    1    3    3  500    0 -8.77574670511E+00 -1.69097477072E+00  4.35260825934E+00  9.95807953159E+00  5.87386917370E-01  0.0000E+00  9.0
        1    1    4    4  504    0  4.15482972959E+01  2.34318114799E+00  1.78568281748E+02  1.83353164010E+02  0.00000000000E+00  0.0000E+00  9.0
       -2    1    4    4    0  504 -3.09964556257E+01 -1.05822961508E+01  5.64914842347E+01  6.52997170302E+01  0.00000000000E+00  0.0000E+00  9.0
</event>
<event>
 8    1   5.1859766E+00   4.9410000E+02  -1.0000000E+00   9.3620000E-02
       11   -1    0    0    0    0  0.00000000000E+00  0.00000000000E+00  2.45830260800E+02  2.45830260800E+02  0.00000000000E+00  0.0000E+00  9.0
      -11   -1    0    0    0    0  0.00000000000E+00  0.00000000000E+00 -2.48315031800E+02  2.48315031800E+02  0.00000000000E+00  0.0000E+00  9.0
       24    2    1    2    0    0 -1.09806373037E+01 -2.75753084340E+01 -2.33176567650E+02  2.48378373935E+02  8.02467002861E+01  2.8640E-14  9.0
      -24    2    1    2    0    0  1.09806373037E+01  2.75753084340E+01  2.30691796650E+02  2.45766918674E+02  7.93832554283E+01  2.4684E-14  9.0
       -1    1    3    3    0  500 -4.09395214474E+01 -3.46576994742E+01 -1.66753082125E+02  1.75167893598E+02  0.00000000000E+00  0.0000E+00  9.0
        2    1    3    3  500    0  2.99588841436E+01  7.08239104022E+00 -6.64234855242E+01  7.32104803369E+01  0.00000000000E+00  0.0000E+00  9.0
        3    1    4    4  504    0  2.36635739074E+01  1.12439153526E+01  2.21646697632E+02  2.23189715116E+02  0.00000000000E+00  0.0000E+00  9.0
       -4    1    4    4    0  504 -1.26829366036E+01  1.63313930814E+01  9.04509901765E+00  2.25772035580E+01  5.87386917370E-01  0.0000E+00  9.0
</event>
<event>
 8    1   5.1859766E+00   4.9830000E+02  -1.0000000E+00   9.3530000E-02
       11   -1    0    0    0    0  0.00000000000E+00  0.00000000000E+00  2.50000000000E+02  2.50000000000E+02  0.00000000000E+00  0.0000E+00  9.0
      -11   -1    0    0    0    0  0.00000000000E+00  0.00000000000E+00 -2.48285121640E+02  2.48285121640E+02  0.00000000000E+00  0.0000E+00  9.0
       24    2    1    2    0    0 -9.74655508160E+01 -6.13123340468E-01 -2.19601627873E+02  2.43479729723E+02  3.94663692941E+01  2.8321E-14  9.0
      -24    2    1    2    0    0  9.74655508160E+01  6.13123340468E-01  2.21316506233E+02  2.54805391924E+02  8.02800243275E+01  6.4467E-14  9.0
       -1    1    3    3    0  500 -1.96340549318E+01 -1.63970547093E+01 -5.94089245856E+01  6.46821446507E+01  0.00000000000E+00  0.0000E+00  9.0
        2    1    3    3  500    0 -7.78314958842E+01  1.57839313688E+01 -1.60192703288E+02  1.78797585072E+02  0.00000000000E+00  0.0000E+00  9.0
        1    1    4    4  504    0  6.33036153636E+01  7.64082079468E+00  2.07863466000E+02  2.17423435623E+02  0.00000000000E+00  0.0000E+00  9.0
       -2    1    4    4    0  504  3.41619354524E+01 -7.02769745421E+00  1.34530402332E+01  3.73819563008E+01  0.00000000000E+00  0.0000E+00  9.0
</event>
<event>
 8    1   5.1859766E+00   4.7960000E+02  -1.0000000E+00   9.3950000E-02
       11   -1    0    0    0    0  0.00000000000E+00  0.00000000000E+00  2.49998603990E+02  2.49998603990E+02  0.00000000000E+00  0.0000E+00  9.0
      -11   -1    0    0    0    0  0.00000000000E+00  0.00000000000E+00 -2.29980328860E+02  2.29980328860E+02  0.00000000000E+00  0.0000E+00  9.0
       24    2    1    2    0    0 -2.35578373387E+01 -3.77804655245E+01 -2.12430754008E+02  2.31859947548E+02  8.15467642091E+01  4.0605E-14  9.0
      -24    2    1    2    0    0  2.35578373387E+01  3.77804655245E+01  2.32449029148E+02  2.48118985295E+02  7.44858673615E+01  1.3841E-13  9.0
       -3    1    3    3    0  500  2.30923531314E+01 -3.29215118543E+01 -5.88582718189E+01  7.12837911269E+01  0.00000000000E+00  0.0000E+00  9.0
        4    1    3    3  500    0 -4.66501904701E+01 -4.85895367019E+00 -1.53572482190E+02  1.60576156421E+02  5.87386917370E-01  0.0000E+00  9.0
        3    1    4    4  504    0  4.89977520831E+01  1.48734054158E+01  1.59854293519E+02  1.67855274133E+02  0.00000000000E+00  0.0000E+00  9.0
       -4    1    4    4    0  504 -2.54399147444E+01  2.29070601087E+01  7.25947356297E+01  8.02637111624E+01  5.87386917370E-01  0.0000E+00  9.0
</event>
<event>
 8    1   5.1859766E+00   4.6640000E+02  -1.0000000E+00   9.4270000E-02
       11   -1    0    0    0    0  0.00000000000E+00  0.00000000000E+00  2.20659578030E+02  2.20659578030E+02  0.00000000000E+00  0.0000E+00  9.0
      -11   -1    0    0    0    0  0.00000000000E+00  0.00000000000E+00 -2.46409294640E+02  2.46409294640E+02  0.00000000000E+00  0.0000E+00  9.0
       24    2    1    2    0    0  2.27087104231E+00 -5.11648270679E+01 -2.25289350761E+02  2.45023801946E+02  8.15988699053E+01  4.8138E-14  9.0
      -24    2    1    2    0    0 -2.27087104231E+00  5.11648270679E+01  1.99539634151E+02  2.22045070721E+02  8.28550025674E+01  1.8640E-13  9.0
       -1    1    3    3    0  500 -3.91952053155E+01 -2.76817706954E+01 -9.82747178292E+01  1.09363909554E+02  0.00000000000E+00  0.0000E+00  9.0
        2    1    3    3  500    0  4.14660763578E+01 -2.34830563726E+01 -1.27014632931E+02  1.35659892392E+02  0.00000000000E+00  0.0000E+00  9.0
        1    1    4    4  504    0 -3.65517503057E+01  4.79886317936E+01  1.50388269919E+02  1.62035708908E+02  0.00000000000E+00  0.0000E+00  9.0
       -2    1    4    4    0  504  3.42808792634E+01  3.17619527436E+00  4.91513642311E+01  6.00093618136E+01  0.00000000000E+00  0.0000E+00  9.0
</event>
<event>
 8    1   5.1859766E+00   4.8170000E+02  -1.0000000E+00   9.3900000E-02
       11   -1    0    0    0    0  0.00000000000E+00  0.00000000000E+00  2.49639276990E+02  2.49639276990E+02  0.00000000000E+00  0.0000E+00  9.0
      -11   -1    0    0    0    0  0.00000000000E+00  0.00000000000E+00 -2.32386581860E+02  2.32386581860E+02  0.00000000000E+00  0.0000E+00  9.0
       24    2    1    2    0    0 -9.48219701767E+00  1.50144702485E+02 -1.61146631892E+02  2.34377689318E+02  7.95695955468E+01  9.2431E-15  9.0
      -24    2    1    2    0    0  9.48219701767E+00 -1.50144702485E+02  1.78399327022E+02  2.47648169521E+02  8.28851750367E+01  7.3603E-14  9.0
       -3    1    3    3    0  500 -7.54595742926E+00  1.42878369017E+02 -1.70359196061E+02  2.22471179008E+02  0.00000000000E+00  0.0000E+00  9.0
        4    1    3    3  500    0 -1.93623958841E+00  7.26633346803E+00  9.21256416925E+00  1.19065103106E+01  5.87386917370E-01  0.0000E+00  9.0
        1    1    4    4  504    0 -2.35812259979E+01 -3.14890312151E+01  1.30213634500E+01  4.14389817989E+01  0.00000000000E+00  0.0000E+00  9.0
       -2    1    4    4    0  504  3.30634230155E+01 -1.18655671270E+02  1.65377963572E+02  2.06209187723E+02  0.00000000000E+00  0.0000E+00  9.0
</event>
<event>
 8    1   5.1859766E+00   4.8260000E+02  -1.0000000E+00   9.3880000E-02
       11   -1    0    0    0    0  0.00000000000E+00  0.00000000000E+00  2.35609506690E+02  2.35609506690E+02  0.00000000000E+00  0.0000E+00  9.0
      -11   -1    0    0    0    0  0.00000000000E+00  0.00000000000E+00 -2.47126772900E+02  2.47126772900E+02  0.00000000000E+00  0.0000E+00  9.0
       24    2    1    2    0    0  1.92698477487E+02 -1.06470114935E+02 -5.38777517021E+01  2.43993610441E+02  9.03409165731E+01  8.5254E-15  9.0
      -24    2    1    2    0    0 -1.92698477487E+02  1.06470114935E+02  4.23604854921E+01  2.38742669147E+02  8.20674280078E+01  1.6129E-13  9.0
       -3    1    3    3    0  500  1.27133916034E+02 -1.10583382649E+02 -1.88686336304E+01  1.69551592323E+02  0.00000000000E+00  0.0000E+00  9.0
        4    1    3    3  500    0  6.55645614538E+01  4.11326771406E+00 -3.50091180717E+01  7.44420181180E+01  5.87386917370E-01  0.0000E+00  9.0
        3    1    4    4  504    0 -1.66300817053E+02  8.59950816794E+01  3.17552348333E+00  1.87246361179E+02  0.00000000000E+00  0.0000E+00  9.0
       -4    1    4    4    0  504 -2.63976604347E+01  2.04750332559E+01  3.91849620088E+01  5.14963079674E+01  5.87386917370E-01  0.0000E+00  9.0
</event>
<event>
 8    1   5.1859766E+00   4.7280000E+02  -1.0000000E+00   9.4110000E-02
       11   -1    0    0    0    0  0.00000000000E+00  0.00000000000E+00  2.26210473170E+02  2.26210473170E+02  0.00000000000E+00  0.0000E+00  9.0
      -11   -1    0    0    0    0  0.00000000000E+00  0.00000000000E+00 -2.47086766800E+02  2.47086766800E+02  0.00000000000E+00  0.0000E+00  9.0
       24    2    1    2    0    0 -1.12437480748E-03 -2.58346210188E+01 -2.30975640627E+02  2.46716038198E+02  8.27745691423E+01  3.6382E-14  9.0
      -24    2    1    2    0    0  1.12437480748E-03  2.58346210188E+01  2.10099346997E+02  2.26581201761E+02  8.08076589082E+01  8.8199E-15  9.0
      -13    1    3    3    0    0  3.33168477685E+01  1.11626333637E+01 -7.18215729167E+01  7.99560268996E+01  1.05700000000E-01  0.0000E+00  9.0
       14    1    3    3    0    0 -3.33179721433E+01 -3.69972543825E+01 -1.59154067710E+02  1.66760011299E+02  0.00000000000E+00  0.0000E+00  9.0
        3    1    4    4  500    0  3.91111248346E+01  2.45248526804E+00  9.22923772101E+01  1.00267530442E+02  0.00000000000E+00  0.0000E+00  9.0
       -4    1    4    4    0  500 -3.91100004598E+01  2.33821357508E+01  1.17806969787E+02  1.26313671319E+02  5.87386917370E-01  0.0000E+00  9.0
</event>
<event>
 8    1   5.1859766E+00   4.9020000E+02  -1.0000000E+00   9.3710000E-02
       11   -1    0    0    0    0  0.00000000000E+00  0.00000000000E+00  2.50000000000E+02  2.50000000000E+02  0.00000000000E+00  0.0000E+00  9.0
      -11   -1    0    0    0    0  0.00000000000E+00  0.00000000000E+00 -2.40270163800E+02  2.40270163800E+02  0.00000000000E+00  0.0000E+00  9.0
       24    2    1    2    0    0  1.23583325008E+02  1.89730820663E+02 -4.46697461811E+01  2.44229785982E+02  7.98885449083E+01  4.2298E-15  9.0
      -24    2    1    2    0    0 -1.23583325008E+02 -1.89730820663E+02  5.43995823811E+01  2.46040377821E+02  7.94098887138E+01  4.5888E-14  9.0
       -3    1    3    3    0  500  1.10796892509E+02  1.83117568461E+02 -1.90976431857E+01  2.14878373142E+02  0.00000000000E+00  0.0000E+00  9.0
        4    1    3    3  500    0  1.27864324993E+01  6.61325220176E+00 -2.55721029954E+01  2.93514128406E+01  5.87386917370E-01  0.0000E+00  9.0
       13    1    4    4    0    0 -1.28518330947E+02 -1.91131450825E+02  6.04355015209E+01  2.38118991053E+02  1.05700000000E-01  0.0000E+00  9.0
      -14    1    4    4    0    0  4.93500593813E+00  1.40063016202E+00 -6.03591913981E+00  7.92138676764E+00  0.00000000000E+00  0.0000E+00  9.0
</event>
<event>
 8    1   5.1859766E+00   4.9970000E+02  -1.0000000E+00   9.3500000E-02
       11   -1    0    0    0    0  0.00000000000E+00  0.00000000000E+00  2.49999998360E+02  2.49999998360E+02  0.00000000000E+00  0.0000E+00  9.0
      -11   -1    0    0    0    0  0.00000000000E+00  0.00000000000E+00 -2.49744159480E+02  2.49744159480E+02  0.00000000000E+00  0.0000E+00  9.0
       24    2    1    2    0    0 -3.42200973690E+01 -6.03180743947E+01 -2.25681926996E+02  2.50363770098E+02  8.33090633892E+01  2.9720E-13  9.0
      -24    2    1    2    0    0  3.42200973690E+01  6.03180743947E+01  2.25937765876E+02  2.49380387737E+02  7.95827781376E+01  7.9576E-14  9.0
       -1    1    3    3    0  500 -1.41044812712E+01 -4.86408432275E+01 -2.20882962065E+02  2.26614542677E+02  0.00000000000E+00  0.0000E+00  9.0
        2    1    3    3  500    0 -2.01156160978E+01 -1.16772311673E+01 -4.79896493038E+00  2.37492274218E+01  0.00000000000E+00  0.0000E+00  9.0
        3    1    4    4  504    0 -2.13492346351E+00  1.77009713909E+00  1.36213799412E+02  1.36242028363E+02  0.00000000000E+00  0.0000E+00  9.0
       -4    1    4    4    0  504  3.63550208326E+01  5.85479772557E+01  8.97239664633E+01  1.13138359374E+02  5.87386917370E-01  0.0000E+00  9.0
</event>
<event>
 8    1   5.1859766E+00   4.9440000E+02  -1.0000000E+00   9.3610000E-02
       11   -1    0    0    0    0  0.00000000000E+00  0.00000000000E+00  2.48952800340E+02  2.48952800340E+02  0.00000000000E+00  0.0000E+00  9.0
      -11   -1    0    0    0    0  0.00000000000E+00  0.00000000000E+00 -2.45503994010E+02  2.45503994010E+02  0.00000000000E+00  0.0000E+00  9.0
       24    2    1    2    0    0 -1.83657830929E+02 -6.36133241473E+01  1.32142036009E+02  2.47898061835E+02  7.88357628892E+01  4.2410E-14  9.0
      -24    2    1    2    0    0  1.83657830929E+02  6.36133241473E+01 -1.28693229689E+02  2.46558732514E+02  8.03268780704E+01  7.6635E-14  9.0
       -1    1    3    3    0  500 -1.41953852102E+02 -2.84353867679E+01  5.82654230411E+01  1.56058728911E+02  0.00000000000E+00  0.0000E+00  9.0
        2    1    3    3  500    0 -4.17039788268E+01 -3.51779373794E+01  7.38766129676E+01  9.18393329235E+01  0.00000000000E+00  0.0000E+00  9.0
        3    1    4    4  504    0  2.90881006367E+01  3.64530645883E+01 -5.80234759104E+01  7.44423755212E+01  0.00000000000E+00  0.0000E+00  9.0
       -4    1    4    4    0  504  1.54569730292E+02  2.71602595590E+01 -7.06697537784E+01  1.72116356993E+02  5.87386917370E-01  0.0000E+00  9.0
</event>
<event>
 8    1   5.1859766E+00   4.9680000E+02  -1.0000000E+00   9.3560000E-02
       11   -1    0    0    0    0  0.00000000000E+00  0.00000000000E+00  2.48487739640E+02  2.48487739640E+02  0.00000000000E+00  0.0000E+00  9.0
      -11   -1    0    0    0    0  0.00000000000E+00  0.00000000000E+00 -2.48292672070E+02  2.48292672070E+02  0.00000000000E+00  0.0000E+00  9.0
       24    2    1    2    0    0  1.65294841162E+02  1.23736542101E+02 -1.11108940334E+02  2.48527130306E+02  8.23858089106E+01  2.8288E-13  9.0
      -24    2    1    2    0    0 -1.65294841162E+02 -1.23736542101E+02  1.11304007894E+02  2.48253281401E+02  8.12895638280E+01  5.1227E-15  9.0
       -3    1    3    3    0  500  1.45126969693E+02  6.28273619486E+01 -7.87733203743E+01  1.76675835202E+02  0.00000000000E+00  0.0000E+00  9.0
        4    1    3    3  500    0  2.01678714690E+01  6.09091801522E+01 -3.23356199600E+01  7.18512951031E+01  5.87386917370E-01  0.0000E+00  9.0
        3    1    4    4  504    0 -1.15512558085E+02 -4.03444011768E+01  8.00932160243E+01  1.46238657798E+02  0.00000000000E+00  0.0000E+00  9.0
       -4    1    4    4    0  504 -4.97822830773E+01 -8.33921409240E+01  3.12107918700E+01  1.02014623603E+02  5.87386917370E-01  0.0000E+00  9.0
</event>
<event>
 8    1   5.1859766E+00   5.0000000E+02  -1.0000000E+00   9.3490000E-02
       11   -1    0    0    0    0  0.00000000000E+00  0.00000000000E+00  2.49998444810E+02  2.49998444810E+02  0.00000000000E+00  0.0000E+00  9.0
      -11   -1    0    0    0    0  0.00000000000E+00  0.00000000000E+00 -2.49999999980E+02  2.49999999980E+02  0.00000000000E+00  0.0000E+00  9.0
       24    2    1    2    0    0  4.85483115596E+00 -4.18721846807E+01 -2.31031831384E+02  2.50841645824E+02  8.81417887924E+01  1.4500E-13  9.0
      -24    2    1    2    0    0 -4.85483115596E+00  4.18721846807E+01  2.31030276214E+02  2.49156798969E+02  8.32302391511E+01  1.1455E-13  9.0
       -3    1    3    3    0  500  2.01502091414E+01 -4.56633093844E+01 -5.56548639605E+01  7.47571577499E+01  0.00000000000E+00  0.0000E+00  9.0
        4    1    3    3  500    0 -1.52953779854E+01  3.79112470373E+00 -1.75376967424E+02  1.76084488074E+02  5.87386917370E-01  0.0000E+00  9.0
        1    1    4    4  504    0 -3.33667477705E+01 -8.24783245867E+00  1.06845791737E+02  1.12238094286E+02  0.00000000000E+00  0.0000E+00  9.0
       -2    1    4    4    0  504  2.85119166145E+01  5.01200171394E+01  1.24184484478E+02  1.36918704683E+02  0.00000000000E+00  0.0000E+00  9.0
</event>
<event>
 8    1   5.1859766E+00   4.7380000E+02  -1.0000000E+00   9.4090000E-02
       11   -1    0    0    0    0  0.00000000000E+00  0.00000000000E+00  2.24468211830E+02  2.24468211830E+02  0.00000000000E+00  0.0000E+00  9.0
      -11   -1    0    0    0    0  0.00000000000E+00  0.00000000000E+00 -2.49997731270E+02  2.49997731270E+02  0.00000000000E+00  0.0000E+00  9.0
       24    2    1    2    0    0 -3.64410829144E-01 -1.18044744172E+01 -2.35947705600E+02  2.50437085888E+02  8.31139927972E+01  3.1491E-14  9.0
      -24    2    1    2    0    0  3.64410829144E-01  1.18044744172E+01  2.10418186170E+02  2.24028857210E+02  7.59844548582E+01  5.4380E-14  9.0
      -13    1    3    3    0    0  3.16309285073E+01  5.06966345556E+00 -1.86161238007E+02  1.88897418814E+02  1.05700000000E-01  0.0000E+00  9.0
       14    1    3    3    0    0 -3.19953393365E+01 -1.68741378727E+01 -4.97864675931E+01  6.15396670742E+01  0.00000000000E+00  0.0000E+00  9.0
        3    1    4    4  500    0  3.79235488309E+01  1.02688173496E+01  1.09541035558E+02  1.16373891560E+02  0.00000000000E+00  0.0000E+00  9.0
       -4    1    4    4    0  500 -3.75591380017E+01  1.53565706753E+00  1.00877150612E+02  1.07654965650E+02  5.87386917370E-01  0.0000E+00  9.0
</event>
<event>
 8    1   5.1859766E+00   4.9920000E+02  -1.0000000E+00   9.3510000E-02
       11   -1    0    0    0    0  0.00000000000E+00  0.00000000000E+00  2.49220292910E+02  2.49220292910E+02  0.00000000000E+00  0.0000E+00  9.0
      -11   -1    0    0    0    0  0.00000000000E+00  0.00000000000E+00 -2.50000000000E+02  2.50000000000E+02  0.00000000000E+00  0.0000E+00  9.0
       24    2    1    2    0    0  1.24757762885E+02  7.62909798292E+01 -1.87280282983E+02  2.50800892799E+02  8.02643783445E+01  5.0036E-15  9.0
      -24    2    1    2    0    0 -1.24757762885E+02 -7.62909798292E+01  1.86500575893E+02  2.48419400111E+02  7.44642232208E+01  9.3517E-14  9.0
       -1    1    3    3    0  500  7.59169583855E+01  2.47879492223E+01 -1.51622782209E+02  1.71368885980E+02  0.00000000000E+00  0.0000E+00  9.0
        2    1    3    3  500    0  4.88408044990E+01  5.15030306069E+01 -3.56575007744E+01  7.94320068189E+01  0.00000000000E+00  0.0000E+00  9.0
        3    1    4    4  504    0 -5.14478730348E+01 -5.69120406199E+01  1.39499886584E+02  1.59204529974E+02  0.00000000000E+00  0.0000E+00  9.0
       -4    1    4    4    0  504 -7.33098898497E+01 -1.93789392093E+01  4.70006893093E+01  8.92148701372E+01  5.87386917370E-01  0.0000E+00  9.0
</event>
<event>
 8    1   5.1859766E+00   4.8580000E+02  -1.0000000E+00   9.3810000E-02
       11   -1    0    0    0    0  0.00000000000E+00  0.00000000000E+00  2.46858155800E+02  2.46858155800E+02  0.00000000000E+00  0.0000E+00  9.0
      -11   -1    0    0    0    0  0.00000000000E+00  0.00000000000E+00 -2.39052896640E+02  2.39052896640E+02  0.00000000000E+00  0.0000E+00  9.0
       24    2    1    2    0    0 -7.99133221120E+00 -3.88089142999E+01 -2.21643134087E+02  2.39415653801E+02  8.13890851256E+01  1.5682E-13  9.0
      -24    2    1    2    0    0  7.99133221120E+00  3.88089142999E+01  2.29448393247E+02  2.46495398639E+02  8.08914282663E+01  7.7132E-14  9.0
       -3    1    3    3    0  500 -1.71199263269E+01 -3.33545993099E+01 -3.14819115506E+01  4.89564288673E+01  0.00000000000E+00  0.0000E+00  9.0
        4    1    3    3  500    0  9.12859411569E+00 -5.45431498996E+00 -1.90161222536E+02  1.90459224934E+02  5.87386917370E-01  0.0000E+00  9.0
        3    1    4    4  504    0  3.61045045530E+01  1.81381981770E+00  5.38949980713E+01  6.48960400059E+01  0.00000000000E+00  0.0000E+00  9.0
       -4    1    4    4    0  504 -2.81131723418E+01  3.69950944822E+01  1.75553395176E+02  1.81599358633E+02  5.87386917370E-01  0.0000E+00  9.0
</event>
<event>
 8    1   5.1859766E+00   2.6220000E+02  -1.0000000E+00   1.0120000E-01
       11   -1    0    0    0    0  0.00000000000E+00  0.00000000000E+00  2.49988236380E+02  2.49988236380E+02  0.00000000000E+00  0.0000E+00  9.0
      -11   -1    0    0    0    0  0.00000000000E+00  0.00000000000E+00 -6.87555008480E+01  6.87555008480E+01  0.00000000000E+00  0.0000E+00  9.0
       24    2    1    2    0    0  9.81946449846E+00  7.03534301527E+00 -3.42378817537E+01  8.84945810129E+01  8.07040295604E+01  1.4071E-15  9.0
      -24    2    1    2    0    0 -9.81946449846E+00 -7.03534301527E+00  2.15470617291E+02  2.30249156220E+02  8.02568943450E+01  5.0079E-15  9.0
       -1    1    3    3    0  500 -2.90192761224E+01  2.07705182379E+01 -1.23283696610E+00  3.57078801040E+01  0.00000000000E+00  0.0000E+00  9.0
        2    1    3    3  500    0  3.88387406208E+01 -1.37351752226E+01 -3.30050447876E+01  5.27867009089E+01  0.00000000000E+00  0.0000E+00  9.0
        3    1    4    4  504    0  3.38925074423E+01  1.97740788610E+00  1.22522512109E+02  1.27139207864E+02  0.00000000000E+00  0.0000E+00  9.0
       -4    1    4    4    0  504 -4.37119719408E+01 -9.01275090137E+00  9.29481051817E+01  1.03109948356E+02  5.87386917370E-01  0.0000E+00  9.0
</event>
<event>
 8    1   5.1859766E+00   4.9930000E+02  -1.0000000E+00   9.3510000E-02
       11   -1    0    0    0    0  0.00000000000E+00  0.00000000000E+00  2.49997088430E+02  2.49997088430E+02  0.00000000000E+00  0.0000E+00  9.0
      -11   -1    0    0    0    0  0.00000000000E+00  0.00000000000E+00 -2.49320751780E+02  2.49320751780E+02  0.00000000000E+00  0.0000E+00  9.0
       24    2    1    2    0    0 -9.43362943407E+01 -1.99905864434E+02 -8.30835603681E+01  2.50120041514E+02  8.24346171130E+01  1.6206E-13  9.0
      -24    2    1    2    0    0  9.43362943407E+01  1.99905864434E+02  8.37598970251E+01  2.49197798694E+02  7.88804884571E+01  4.5552E-14  9.0
       -1    1    3    3    0  500 -2.34475089699E+01 -1.08618253805E+02 -7.53975481490E+01  1.34285148112E+02  0.00000000000E+00  0.0000E+00  9.0
        2    1    3    3  500    0 -7.08887853707E+01 -9.12876106291E+01 -7.68601221911E+00  1.15834893402E+02  0.00000000000E+00  0.0000E+00  9.0
        1    1    4    4  504    0  2.50675301526E+01  1.06641426009E+02  6.62511953485E+00  1.09748198245E+02  0.00000000000E+00  0.0000E+00  9.0
       -2    1    4    4    0  504  6.92687641881E+01  9.32644384250E+01  7.71347774903E+01  1.39449600449E+02  0.00000000000E+00  0.0000E+00  9.0
</event>
<event>
 8    1   5.1859766E+00   4.8120000E+02  -1.0000000E+00   9.3920000E-02
       11   -1    0    0    0    0  0.00000000000E+00  0.00000000000E+00  2.46275123630E+02  2.46275123630E+02  0.00000000000E+00  0.0000E+00  9.0
      -11   -1    0    0    0    0  0.00000000000E+00  0.00000000000E+00 -2.35083217700E+02  2.35083217700E+02  0.00000000000E+00  0.0000E+00  9.0
       24    2    1    2    0    0 -8.71380081124E+00 -3.20628608337E+01 -2.18247089397E+02  2.34776926554E+02  7.99027899543E+01  1.4300E-13  9.0
      -24    2    1    2    0    0  8.71380081124E+00  3.20628608337E+01  2.29438995327E+02  2.46581414776E+02  8.40010962219E+01  5.6823E-14  9.0
       -3    1    3    3    0  500  6.64381866072E+00 -4.76847582869E+01 -2.01565481587E+02  2.07235662633E+02  0.00000000000E+00  0.0000E+00  9.0
        4    1    3    3  500    0 -1.53576194720E+01  1.56218974532E+01 -1.66816078100E+01  2.75412639216E+01  5.87386917370E-01  0.0000E+00  9.0
        3    1    4    4  504    0 -2.19008228369E+01  4.29458593803E+01  7.80010470150E+01  9.16959989001E+01  0.00000000000E+00  0.0000E+00  9.0
       -4    1    4    4    0  504  3.06146236481E+01 -1.08829985466E+01  1.51437948312E+02  1.54885415875E+02  5.87386917370E-01  0.0000E+00  9.0
</event>
<event>
 8    1   5.1859766E+00   4.8740000E+02  -1.0000000E+00   9.3770000E-02
       11   -1    0    0    0    0  0.00000000000E+00  0.00000000000E+00  2.37799159950E+02  2.37799159950E+02  0.00000000000E+00  0.0000E+00  9.0
      -11   -1    0    0    0    0  0.00000000000E+00  0.00000000000E+00 -2.49696616020E+02  2.49696616020E+02  0.00000000000E+00  0.0000E+00  9.0
       24    2    1    2    0    0 -6.96396832404E+01  7.14241106867E+01 -2.13141171340E+02  2.49152942015E+02  8.18348368689E+01  7.6272E-14  9.0
      -24    2    1    2    0    0  6.96396832404E+01 -7.14241106867E+01  2.01243715270E+02  2.38342833956E+02  7.97319540294E+01  2.3712E-13  9.0
       -1    1    3    3    0  500 -3.66276367853E+01  7.93115322935E+01 -1.86699800431E+02  2.06127917596E+02  0.00000000000E+00  0.0000E+00  9.0
        2    1    3    3  500    0 -3.30120464551E+01 -7.88742160676E+00 -2.64413709085E+01  4.30250244192E+01  0.00000000000E+00  0.0000E+00  9.0
        1    1    4    4  504    0  7.27607897012E+01 -7.56592834326E+01  2.06030945471E+02  2.31229777881E+02  0.00000000000E+00  0.0000E+00  9.0
       -2    1    4    4    0  504 -3.12110646074E+00  4.23517274586E+00 -4.78723020084E+00  7.11305607473E+00  0.00000000000E+00  0.0000E+00  9.0
</event>
<event>
 8    1   5.1859766E+00   3.6700000E+02  -1.0000000E+00   9.7040000E-02
       11   -1    0    0    0    0  0.00000000000E+00  0.00000000000E+00  2.49791492300E+02  2.49791492300E+02  0.00000000000E+00  0.0000E+00  9.0
      -11   -1    0    0    0    0  0.00000000000E+00  0.00000000000E+00 -1.34815618080E+02  1.34815618080E+02  0.00000000000E+00  0.0000E+00  9.0
       24    2    1    2    0    0  1.46394699257E+00  1.92629758601E+01 -1.10534188820E+02  1.44908289778E+02  9.16918762409E+01  1.5125E-13  9.0
      -24    2    1    2    0    0 -1.46394699257E+00 -1.92629758601E+01  2.25510063030E+02  2.39698820604E+02  7.89147051653E+01  1.0852E-13  9.0
       -3    1    3    3    0  500  3.72943733113E+01  3.66649749782E+01 -4.94091391154E+01  7.19475760464E+01  0.00000000000E+00  0.0000E+00  9.0
        4    1    3    3  500    0 -3.58304263187E+01 -1.74019991180E+01 -6.11250497043E+01  7.29607137316E+01  5.87386917370E-01  0.0000E+00  9.0
       13    1    4    4    0    0 -2.76128375650E+00 -2.17193360620E+00 -6.32236691733E+00  7.23363528947E+00  1.05700000000E-01  0.0000E+00  9.0
      -14    1    4    4    0    0  1.29733676392E+00 -1.70910422539E+01  2.31832429947E+02  2.32465185314E+02  0.00000000000E+00  0.0000E+00  9.0
</event>
<event>
 8    1   5.1859766E+00   3.8860000E+02  -1.0000000E+00   9.6360000E-02
       11   -1    0    0    0    0  0.00000000000E+00  0.00000000000E+00  2.21281305440E+02  2.21281305440E+02  0.00000000000E+00  0.0000E+00  9.0
      -11   -1    0    0    0    0  0.00000000000E+00  0.00000000000E+00 -1.70649897350E+02  1.70649897350E+02  0.00000000000E+00  0.0000E+00  9.0
       24    2    1    2    0    0  5.83325621579E+01  1.35158578686E+02 -7.02754073831E+01  1.85337239549E+02  8.79814200866E+01  1.2207E-13  9.0
      -24    2    1    2    0    0 -5.83325621579E+01 -1.35158578686E+02  1.20906815484E+02  2.06593963243E+02  7.99504747795E+01  4.5000E-14  9.0
      -13    1    3    3    0    0  5.19542546653E+01  1.43696834375E+02 -4.72082372067E+01  1.59927025921E+02  1.05700000000E-01  0.0000E+00  9.0
       14    1    3    3    0    0  6.37830749253E+00 -8.53825568898E+00 -2.30671701764E+01  2.54102136281E+01  0.00000000000E+00  0.0000E+00  9.0
        1    1    4    4  500    0  4.92716554127E-01 -1.19418031256E+01 -1.13646762620E+01  1.64925831220E+01  0.00000000000E+00  0.0000E+00  9.0
       -2    1    4    4    0  500 -5.88252787120E+01 -1.23216775561E+02  1.32271491746E+02  1.90101380121E+02  0.00000000000E+00  0.0000E+00  9.0
</event>
<event>
 8    1   5.1859766E+00   4.6990000E+02  -1.0000000E+00   9.4180000E-02
       11   -1    0    0    0    0  0.00000000000E+00  0.00000000000E+00  2.50000000000E+02  2.50000000000E+02  0.00000000000E+00  0.0000E+00  9.0
      -11   -1    0    0    0    0  0.00000000000E+00  0.00000000000E+00 -2.20814404450E+02  2.20814404450E+02  0.00000000000E+00  0.0000E+00  9.0
       24    2    1    2    0    0 -1.07039723444E+02 -7.36010154899E+01 -1.63369927598E+02  2.24769750549E+02  8.34092059817E+01  1.5082E-14  9.0
      -24    2    1    2    0    0  1.07039723444E+02  7.36010154899E+01  1.92555523148E+02  2.46044653905E+02  8.11525128658E+01  4.7046E-14  9.0
      -13    1    3    3    0    0 -1.13245851154E+02 -6.68190331561E+01 -1.12417180398E+02  1.72994334059E+02  1.05700000000E-01  0.0000E+00  9.0
       14    1    3    3    0    0  6.20612770929E+00 -6.78198233380E+00 -5.09527472000E+01  5.17754164903E+01  0.00000000000E+00  0.0000E+00  9.0
        3    1    4    4  500    0  2.51328054456E+01 -1.63489310123E+01  2.53357007232E+01  3.92535754543E+01  0.00000000000E+00  0.0000E+00  9.0
       -4    1    4    4    0  500  8.19069179987E+01  8.99499465022E+01  1.67219822424E+02  2.06791078451E+02  5.87386917370E-01  0.0000E+00  9.0
</event>
<event>
 8    1   5.1859766E+00   4.7260000E+02  -1.0000000E+00   9.4120000E-02
       11   -1    0    0    0    0  0.00000000000E+00  0.00000000000E+00  2.49999986800E+02  2.49999986800E+02  0.00000000000E+00  0.0000E+00  9.0
      -11   -1    0    0    0    0  0.00000000000E+00  0.00000000000E+00 -2.23366335840E+02  2.23366335840E+02  0.00000000000E+00  0.0000E+00  9.0
       24    2    1    2    0    0 -1.58250434354E+02  1.54497144094E+02  5.00547623103E+00  2.36009004208E+02  8.22351978703E+01  6.7006E-14  9.0
      -24    2    1    2    0    0  1.58250434354E+02 -1.54497144094E+02  2.16281747348E+01  2.37357318427E+02  8.34155330990E+01  1.5275E-13  9.0
       -1    1    3    3    0  500 -1.10687285648E+02  1.30173404971E+02 -2.80930261089E+01  1.73164686591E+02  0.00000000000E+00  0.0000E+00  9.0
        2    1    3    3  500    0 -4.75631487058E+01  2.43237391221E+01  3.30985023399E+01  6.28443176177E+01  0.00000000000E+00  0.0000E+00  9.0
        3    1    4    4  504    0  1.02362723384E+01  4.14725670056E+00  1.70781284575E+01  2.03382270893E+01  0.00000000000E+00  0.0000E+00  9.0
       -4    1    4    4    0  504  1.48014162016E+02 -1.58644400794E+02  4.55004627726E+00  2.17019091338E+02  5.87386917370E-01  0.0000E+00  9.0
</event>
<event>
 8    1   5.1859766E+00   4.9020000E+02  -1.0000000E+00   9.3710000E-02
       11   -1    0    0    0    0  0.00000000000E+00  0.00000000000E+00  2.49630444320E+02  2.49630444320E+02  0.00000000000E+00  0.0000E+00  9.0
      -11   -1    0    0    0    0  0.00000000000E+00  0.00000000000E+00 -2.40639208230E+02  2.40639208230E+02  0.00000000000E+00  0.0000E+00  9.0
       24    2    1    2    0    0  2.86887814463E+01 -9.44738196352E+01 -2.05161191024E+02  2.41649592098E+02  8.09633391198E+01  2.2615E-13  9.0
      -24    2    1    2    0    0 -2.86887814463E+01  9.44738196352E+01  2.14152427114E+02  2.48620060459E+02  7.87548325264E+01  5.2507E-14  9.0
       -1    1    3    3    0  500  3.87237515229E+01 -7.57583584059E+00 -7.63593142017E+01  8.59515391721E+01  0.00000000000E+00  0.0000E+00  9.0
        2    1    3    3  500    0 -1.00349700766E+01 -8.68979837946E+01 -1.28801876822E+02  1.55698052926E+02  0.00000000000E+00  0.0000E+00  9.0
       13    1    4    4    0    0 -3.21171120390E+01  8.42650193264E+01  1.02798669423E+02  1.36746773181E+02  1.05700000000E-01  0.0000E+00  9.0
      -14    1    4    4    0    0  3.42833059269E+00  1.02088003088E+01  1.11353757690E+02  1.11873287277E+02  0.00000000000E+00  0.0000E+00  9.0
</event>
<event>
 8    1   5.1859766E+00   5.0000000E+02  -1.0000000E+00   9.3490000E-02
       11   -1    0    0    0    0  0.00000000000E+00  0.00000000000E+00  2.49999996530E+02  2.49999996530E+02  0.00000000000E+00  0.0000E+00  9.0
      -11   -1    0    0    0    0  0.00000000000E+00  0.00000000000E+00 -2.50000000000E+02  2.50000000000E+02  0.00000000000E+00  0.0000E+00  9.0
       24    2    1    2    0    0  1.17188780245E+02  3.53694979975E+01 -2.02562152265E+02  2.49856339141E+02  8.00784182840E+01  5.8681E-14  9.0
      -24    2    1    2    0    0 -1.17188780245E+02 -3.53694979975E+01  2.02562148805E+02  2.50143657392E+02  8.09704489368E+01  1.3671E-14  9.0
       -3    1    3    3    0  500  4.00260344513E+01  3.77382480937E+01 -3.45638321947E+01  6.49685870176E+01  0.00000000000E+00  0.0000E+00  9.0
        4    1    3    3  500    0  7.71627457940E+01 -2.36875009623E+00 -1.67998320071E+02  1.84887752124E+02  5.87386917370E-01  0.0000E+00  9.0
        3    1    4    4  504    0 -2.61875689004E+01  1.17116359938E+01  7.25252274958E+00  2.95896986939E+01  0.00000000000E+00  0.0000E+00  9.0
       -4    1    4    4    0  504 -9.10012113449E+01 -4.70811339913E+01  1.95309626056E+02  2.20553958698E+02  5.87386917370E-01  0.0000E+00  9.0
</event>
<event>
 8    1   5.1859766E+00   4.4470000E+02  -1.0000000E+00   9.4800000E-02
       11   -1    0    0    0    0  0.00000000000E+00  0.00000000000E+00  1.98887633560E+02  1.98887633560E+02  0.00000000000E+00  0.0000E+00  9.0
      -11   -1    0    0    0    0  0.00000000000E+00  0.00000000000E+00 -2.48634182450E+02  2.48634182450E+02  0.00000000000E+00  0.0000E+00  9.0
       24    2    1    2    0    0  3.34313274413E+01 -4.91611481542E+01 -2.24474986803E+02  2.46389653997E+02  8.23672857052E+01  1.7289E-13  9.0
      -24    2    1    2    0    0 -3.34313274413E+01  4.91611481542E+01  1.74728437913E+02  2.01132162017E+02  7.99352703130E+01  1.4757E-15  9.0
       -3    1    3    3    0  500 -2.06622083909E+01 -3.10882998709E+01 -1.36751104777E+02  1.41754272959E+02  0.00000000000E+00  0.0000E+00  9.0
        4    1    3    3  500    0  5.40935358322E+01 -1.80728482832E+01 -8.77238820255E+01  1.04635381038E+02  5.87386917370E-01  0.0000E+00  9.0
        1    1    4    4  504    0 -1.49699327192E+01 -2.26376693227E-01 -3.40971160772E+00  1.53550078239E+01  0.00000000000E+00  0.0000E+00  9.0
       -2    1    4    4    0  504 -1.84613947221E+01  4.93875248474E+01  1.78138149520E+02  1.85777154193E+02  0.00000000000E+00  0.0000E+00  9.0
</event>
<event>
 8    1   5.1859766E+00   4.9980000E+02  -1.0000000E+00   9.3490000E-02
       11   -1    0    0    0    0  0.00000000000E+00  0.00000000000E+00  2.49854688880E+02  2.49854688880E+02  0.00000000000E+00  0.0000E+00  9.0
      -11   -1    0    0    0    0  0.00000000000E+00  0.00000000000E+00 -2.49965692150E+02  2.49965692150E+02  0.00000000000E+00  0.0000E+00  9.0
       24    2    1    2    0    0  8.49172838820E+01 -1.02678271983E+02 -1.95182180968E+02  2.50167538055E+02  8.20605915763E+01  6.4427E-14  9.0
      -24    2    1    2    0    0 -8.49172838820E+01  1.02678271983E+02  1.95071177698E+02  2.49652842988E+02  8.07465479415E+01  2.0973E-14  9.0
       -1    1    3    3    0  500  1.34137514259E+01  4.77347502264E+00 -6.61427087888E+01  6.76577616909E+01  0.00000000000E+00  0.0000E+00  9.0
        2    1    3    3  500    0  7.15035324562E+01 -1.07451747005E+02 -1.29039472179E+02  1.82509776364E+02  0.00000000000E+00  0.0000E+00  9.0
       13    1    4    4    0    0 -7.14490386927E+00  3.29862180649E+01  1.09680922427E+02  1.14756508096E+02  1.05700000000E-01  0.0000E+00  9.0
      -14    1    4    4    0    0 -7.77723800128E+01  6.96920539177E+01  8.53902552714E+01  1.34896334893E+02  0.00000000000E+00  0.0000E+00  9.0
</event>
<event>
 8    1   5.1859766E+00   4.8740000E+02  -1.0000000E+00   9.3770000E-02
       11   -1    0    0    0    0  0.00000000000E+00  0.00000000000E+00  2.38988123720E+02  2.38988123720E+02  0.00000000000E+00  0.0000E+00  9.0
      -11   -1    0    0    0    0  0.00000000000E+00  0.00000000000E+00 -2.48533308510E+02  2.48533308510E+02  0.00000000000E+00  0.0000E+00  9.0
       24    2    1    2    0    0  8.45545104438E+01  6.13561606436E+01 -2.09551595491E+02  2.47942210252E+02  8.15440050928E+01  1.2997E-14  9.0
      -24    2    1    2    0    0 -8.45545104438E+01 -6.13561606436E+01  2.00006410701E+02  2.39579221978E+02  8.05083573104E+01  1.4075E-13  9.0
       -3    1    3    3    0  500  4.80093739754E+01 -1.29439480189E+01 -7.88163773224E+01  9.31904883240E+01  0.00000000000E+00  0.0000E+00  9.0
        4    1    3    3  500    0  3.65451364684E+01  7.43001086625E+01 -1.30735218169E+02  1.54751721928E+02  5.87386917370E-01  0.0000E+00  9.0
        3    1    4    4  504    0 -7.11437260805E+01 -2.67713272944E+00  9.78897098162E+01  1.21041282578E+02  0.00000000000E+00  0.0000E+00  9.0
       -4    1    4    4    0  504 -1.34107843633E+01 -5.86790279142E+01  1.02116700885E+02  1.18537939400E+02  5.87386917370E-01  0.0000E+00  9.0
</event>
<event>
 8    1   5.1859766E+00   4.9610000E+02  -1.0000000E+00   9.3580000E-02
       11   -1    0    0    0    0  0.00000000000E+00  0.00000000000E+00  2.46086494340E+02  2.46086494340E+02  0.00000000000E+00  0.0000E+00  9.0
      -11   -1    0    0    0    0  0.00000000000E+00  0.00000000000E+00 -2.50000000000E+02  2.50000000000E+02  0.00000000000E+00  0.0000E+00  9.0
       24    2    1    2    0    0  3.23942907975E+01  1.06537180449E+02 -2.08253525587E+02  2.49516723273E+02  8.05574539019E+01  4.1977E-14  9.0
      -24    2    1    2    0    0 -3.23942907975E+01 -1.06537180449E+02  2.04340019927E+02  2.46569771059E+02  8.14999838179E+01  1.4290E-13  9.0
       -3    1    3    3    0  500  5.84504759575E+01  8.01146071071E+01 -1.65138790559E+02  1.92628213299E+02  0.00000000000E+00  0.0000E+00  9.0
        4    1    3    3  500    0 -2.60561851600E+01  2.64225733418E+01 -4.31147350282E+01  5.68885099738E+01  5.87386917370E-01  0.0000E+00  9.0
        3    1    4    4  504    0  2.35481135761E+01 -4.08398287058E+01  4.40048763904E+01  6.44890254838E+01  0.00000000000E+00  0.0000E+00  9.0
       -4    1    4    4    0  504 -5.59424043736E+01 -6.56973517430E+01  1.60335143536E+02  1.82080745576E+02  5.87386917370E-01  0.0000E+00  9.0
</event>
<event>
 8    1   5.1859766E+00   4.9630000E+02  -1.0000000E+00   9.3570000E-02
       11   -1    0    0    0    0  0.00000000000E+00  0.00000000000E+00  2.46557824720E+02  2.46557824720E+02  0.00000000000E+00  0.0000E+00  9.0
      -11   -1    0    0    0    0  0.00000000000E+00  0.00000000000E+00 -2.49750464460E+02  2.49750464460E+02  0.00000000000E+00  0.0000E+00  9.0
       24    2    1    2    0    0 -4.79768705409E+01  3.02480672240E+01 -2.29270617177E+02  2.49612205603E+02  8.07744489775E+01  9.8051E-14  9.0
      -24    2    1    2    0    0  4.79768705409E+01 -3.02480672240E+01  2.26077977437E+02  2.46696083575E+02  8.08144794678E+01  2.8951E-14  9.0
       -1    1    3    3    0  500 -6.52237619242E+01  3.47564833224E+01 -1.37278152230E+02  1.55908445352E+02  0.00000000000E+00  0.0000E+00  9.0
        2    1    3    3  500    0  1.72468913833E+01 -4.50841609837E+00 -9.19924649473E+01  9.37037602510E+01  0.00000000000E+00  0.0000E+00  9.0
        3    1    4    4  504    0 -1.27371500631E+01 -2.48769275261E+01  1.29575652152E+02  1.32555445552E+02  0.00000000000E+00  0.0000E+00  9.0
       -4    1    4    4    0  504  6.07140206040E+01 -5.37113969790E+00  9.65023252853E+01  1.14140638024E+02  5.87386917370E-01  0.0000E+00  9.0
</event>
<event>
 8    1   5.1859766E+00   3.8150000E+02  -1.0000000E+00   9.6580000E-02
       11   -1    0    0    0    0  0.00000000000E+00  0.00000000000E+00  1.71924345850E+02  1.71924345850E+02  0.00000000000E+00  0.0000E+00  9.0
      -11   -1    0    0    0    0  0.00000000000E+00  0.00000000000E+00 -2.11619851400E+02  2.11619851400E+02  0.00000000000E+00  0.0000E+00  9.0
       24    2    1    2    0    0  1.05305490000E+01 -9.92114021151E+01 -1.62167134530E+02  2.06277473710E+02  7.93625974027E+01  2.6242E-13  9.0
      -24    2    1    2    0    0 -1.05305490000E+01  9.92114021151E+01  1.22471628980E+02  1.77266723537E+02  8.04387754543E+01  2.6908E-14  9.0
       -1    1    3    3    0  500  2.20175700176E+01 -4.97894439198E+00 -5.72842882351E+00  2.32890140093E+01  0.00000000000E+00  0.0000E+00  9.0
        2    1    3    3  500    0 -1.14870210176E+01 -9.42324577232E+01 -1.56438705707E+02  1.82988459701E+02  0.00000000000E+00  0.0000E+00  9.0
        3    1    4    4  504    0 -4.40026037397E+01  4.25422217155E+01  4.72991932819E+01  7.73516867915E+01  0.00000000000E+00  0.0000E+00  9.0
       -4    1    4    4    0  504  3.34720547397E+01  5.66691803996E+01  7.51724356984E+01  9.99150367456E+01  5.87386917370E-01  0.0000E+00  9.0
</event>
<event>
 8    1   5.1859766E+00   4.8060000E+02  -1.0000000E+00   9.3930000E-02
       11   -1    0    0    0    0  0.00000000000E+00  0.00000000000E+00  2.31082089600E+02  2.31082089600E+02  0.00000000000E+00  0.0000E+00  9.0
      -11   -1    0    0    0    0  0.00000000000E+00  0.00000000000E+00 -2.49890857630E+02  2.49890857630E+02  0.00000000000E+00  0.0000E+00  9.0
       24    2    1    2    0    0  7.69489504809E+01  2.37512096091E+01 -2.21355309053E+02  2.48727733878E+02  7.98877450938E+01  6.0122E-14  9.0
      -24    2    1    2    0    0 -7.69489504809E+01 -2.37512096091E+01  2.02546541013E+02  2.32245213345E+02  8.01715467447E+01  1.8576E-14  9.0
       -3    1    3    3    0  500  9.19051629498E+01  2.72141373331E+01 -1.70412594529E+02  1.95518849786E+02  0.00000000000E+00  0.0000E+00  9.0
        4    1    3    3  500    0 -1.49562124689E+01 -3.46292772397E+00 -5.09427145243E+01  5.32088840922E+01  5.87386917370E-01  0.0000E+00  9.0
        3    1    4    4  504    0  6.65694125876E+00  1.78868427876E+01  2.32622007914E+01  3.00895994903E+01  0.00000000000E+00  0.0000E+00  9.0
       -4    1    4    4    0  504 -8.36058917396E+01 -4.16380523966E+01  1.79284340222E+02  2.02155613855E+02  5.87386917370E-01  0.0000E+00  9.0
</event>
<event>
 8    1   5.1859766E+00   4.9890000E+02  -1.0000000E+00   9.3520000E-02
       11   -1    0    0    0    0  0.00000000000E+00  0.00000000000E+00  2.48949845610E+02  2.48949845610E+02  0.00000000000E+00  0.0000E+00  9.0
      -11   -1    0    0    0    0  0.00000000000E+00  0.00000000000E+00 -2.49903246920E+02  2.49903246920E+02  0.00000000000E+00  0.0000E+00  9.0
       24    2    1    2    0    0 -8.40378120227E+00 -6.08433342334E+00 -2.35682604670E+02  2.50956156302E+02  8.55865619720E+01  1.1075E-14  9.0
      -24    2    1    2    0    0  8.40378120227E+00  6.08433342334E+00  2.34729203360E+02  2.47896936229E+02  7.90408086394E+01  1.3766E-14  9.0
       -3    1    3    3    0  500 -1.27336630797E+01 -1.10933717850E+01 -2.41520026506E+02  2.42109752543E+02  0.00000000000E+00  0.0000E+00  9.0
        4    1    3    3  500    0  4.32988187743E+00  5.00903836162E+00  5.83742183621E+00  8.84640375889E+00  5.87386917370E-01  0.0000E+00  9.0
       13    1    4    4    0    0  1.10521742821E+01  4.83309520175E+00 -1.04147503627E+00  1.21080637730E+01  1.05700000000E-01  0.0000E+00  9.0
      -14    1    4    4    0    0 -2.64839307979E+00  1.25123822159E+00  2.35770678396E+02  2.35788872456E+02  0.00000000000E+00  0.0000E+00  9.0
</event>
<event>
 8    1   5.1859766E+00   4.9210000E+02  -1.0000000E+00   9.3670000E-02
       11   -1    0    0    0    0  0.00000000000E+00  0.00000000000E+00  2.49999480990E+02  2.49999480990E+02  0.00000000000E+00  0.0000E+00  9.0
      -11   -1    0    0    0    0  0.00000000000E+00  0.00000000000E+00 -2.42141490160E+02  2.42141490160E+02  0.00000000000E+00  0.0000E+00  9.0
       24    2    1    2    0    0 -1.70973005829E+02 -9.92685385678E+01 -1.26689171203E+02  2.47864259361E+02  7.93758999744E+01  3.1192E-14  9.0
      -24    2    1    2    0    0  1.70973005829E+02  9.92685385678E+01  1.34547162023E+02  2.44276711793E+02  4.98212970948E+01  1.3612E-14  9.0
      -13    1    3    3    0    0 -9.15680155435E+01 -7.99349474011E+01 -3.82025995037E+01  1.27411722647E+02  1.05700000000E-01  0.0000E+00  9.0
       14    1    3    3    0    0 -7.94049902855E+01 -1.93335911667E+01 -8.84865716990E+01  1.20452536713E+02  0.00000000000E+00  0.0000E+00  9.0
        1    1    4    4  500    0  6.40135796867E+01  4.76913115251E+01  8.19529762055E+01  1.14404938216E+02  0.00000000000E+00  0.0000E+00  9.0
       -2    1    4    4    0  500  1.06959426142E+02  5.15772270427E+01  5.25941858172E+01  1.29871773576E+02  0.00000000000E+00  0.0000E+00  9.0
</event>
<event>
 8    1   5.1859766E+00   4.2630000E+02  -1.0000000E+00   9.5290000E-02
       11   -1    0    0    0    0  0.00000000000E+00  0.00000000000E+00  2.50000000000E+02  2.50000000000E+02  0.00000000000E+00  0.0000E+00  9.0
      -11   -1    0    0    0    0  0.00000000000E+00  0.00000000000E+00 -1.81693599880E+02  1.81693599880E+02  0.00000000000E+00  0.0000E+00  9.0
       24    2    1    2    0    0  1.16267035565E+01 -7.77229111256E+00 -1.64125005342E+02  1.82881543064E+02  7.94547208812E+01  1.3917E-13  9.0
      -24    2    1    2    0    0 -1.16267035565E+01  7.77229111256E+00  2.32431405462E+02  2.48812056809E+02  8.76783475201E+01  1.3216E-13  9.0
       -3    1    3    3    0  500  2.56975433807E+01 -3.67788920801E+01 -6.77855363048E+01  8.12891725298E+01  0.00000000000E+00  0.0000E+00  9.0
        4    1    3    3  500    0 -1.40708398242E+01  2.90066009675E+01 -9.63394690373E+01  1.01592370535E+02  5.87386917370E-01  0.0000E+00  9.0
        3    1    4    4  504    0 -1.91581619877E+01  4.40616252655E+01  9.48517720857E+01  1.06326481460E+02  0.00000000000E+00  0.0000E+00  9.0
       -4    1    4    4    0  504  7.53145843116E+00 -3.62893341529E+01  1.37579633376E+02  1.42485575350E+02  5.87386917370E-01  0.0000E+00  9.0
</event>
<event>
 8    1   5.1859766E+00   5.0000000E+02  -1.0000000E+00   9.3490000E-02
       11   -1    0    0    0    0  0.00000000000E+00  0.00000000000E+00  2.50000000000E+02  2.50000000000E+02  0.00000000000E+00  0.0000E+00  9.0
      -11   -1    0    0    0    0  0.00000000000E+00  0.00000000000E+00 -2.49984755970E+02  2.49984755970E+02  0.00000000000E+00  0.0000E+00  9.0
       24    2    1    2    0    0  5.59307569968E+01  1.74383613089E+01 -2.28929370614E+02  2.49617876652E+02  8.04243843058E+01  2.3544E-14  9.0
      -24    2    1    2    0    0 -5.59307569968E+01 -1.74383613089E+01  2.28944614644E+02  2.50366879321E+02  8.26776370197E+01  8.3123E-14  9.0
       -3    1    3    3    0  500  5.65069151724E+01  2.72592934585E+01 -8.65464625135E+01  1.06894296928E+02  0.00000000000E+00  0.0000E+00  9.0
        4    1    3    3  500    0 -5.76158175618E-01 -9.82093214962E+00 -1.42382908101E+02  1.42723579724E+02  5.87386917370E-01  0.0000E+00  9.0
        3    1    4    4  504    0 -1.96945143291E+01  2.58148853373E+01  1.49100481834E+02  1.52595006087E+02  0.00000000000E+00  0.0000E+00  9.0
       -4    1    4    4    0  504 -3.62362426677E+01 -4.32532466462E+01  7.98441328102E+01  9.77718732341E+01  5.87386917370E-01  0.0000E+00  9.0
</event>
<event>
 8    1   5.1859766E+00   4.4370000E+02  -1.0000000E+00   9.4830000E-02
       11   -1    0    0    0    0  0.00000000000E+00  0.00000000000E+00  2.39939343570E+02  2.39939343570E+02  0.00000000000E+00  0.0000E+00  9.0
      -11   -1    0    0    0    0  0.00000000000E+00  0.00000000000E+00 -2.05114754760E+02  2.05114754760E+02  0.00000000000E+00  0.0000E+00  9.0
       24    2    1    2    0    0 -2.73219343968E+01 -4.69659088887E+01 -1.82726154851E+02  2.07028686340E+02  8.07449354691E+01  1.1506E-13  9.0
      -24    2    1    2    0    0  2.73219343968E+01  4.69659088887E+01  2.17550743671E+02  2.38025411990E+02  7.98466404051E+01  1.4541E-13  9.0
       -3    1    3    3    0  500  1.39251164650E+01 -4.75111440746E+01 -6.13649515347E+01  7.88471620079E+01  0.00000000000E+00  0.0000E+00  9.0
        4    1    3    3  500    0 -4.12470508619E+01  5.45235185884E-01 -1.21361203317E+02  1.28181524332E+02  5.87386917370E-01  0.0000E+00  9.0
       13    1    4    4    0    0 -1.26715101187E+01  3.53396584362E+01  3.69194717253E+01  5.26546977205E+01  1.05700000000E-01  0.0000E+00  9.0
      -14    1    4    4    0    0  3.99934445155E+01  1.16262504525E+01  1.80631271946E+02  1.85370714269E+02  0.00000000000E+00  0.0000E+00  9.0
</event>
<event>
 8    1   5.1859766E+00   2.9380000E+02  -1.0000000E+00   9.9770000E-02
       11   -1    0    0    0    0  0.00000000000E+00  0.00000000000E+00  2.49978270230E+02  2.49978270230E+02  0.00000000000E+00  0.0000E+00  9.0
      -11   -1    0    0    0    0  0.00000000000E+00  0.00000000000E+00 -8.63470790990E+01  8.63470790990E+01  0.00000000000E+00  0.0000E+00  9.0
       24    2    1    2    0    0  2.71297158955E+01  1.06326128349E+01 -5.56029657769E+01  1.01143058768E+02  7.93041902643E+01  1.2963E-13  9.0
      -24    2    1    2    0    0 -2.71297158955E+01 -1.06326128349E+01  2.19234156914E+02  2.35182290566E+02  7.99876259045E+01  2.0526E-14  9.0
       -3    1    3    3    0  500  2.85603788856E+01  1.64026982306E+01 -7.44297695815E+01  8.13912424729E+01  0.00000000000E+00  0.0000E+00  9.0
        4    1    3    3  500    0 -1.43066299010E+00 -5.77008539562E+00  1.88268038046E+01  1.97518162950E+01  5.87386917370E-01  0.0000E+00  9.0
        1    1    4    4  504    0 -2.69313602909E+01 -4.39052268467E+01  1.43399697032E+02  1.52369420227E+02  0.00000000000E+00  0.0000E+00  9.0
       -2    1    4    4    0  504 -1.98355604642E-01  3.32726140118E+01  7.58344598819E+01  8.28128703385E+01  0.00000000000E+00  0.0000E+00  9.0
</event>
<event>
 8    1   5.1859766E+00   4.7820000E+02  -1.0000000E+00   9.3990000E-02
       11   -1    0    0    0    0  0.00000000000E+00  0.00000000000E+00  2.39046443830E+02  2.39046443830E+02  0.00000000000E+00  0.0000E+00  9.0
      -11   -1    0    0    0    0  0.00000000000E+00  0.00000000000E+00 -2.39186100310E+02  2.39186100310E+02  0.00000000000E+00  0.0000E+00  9.0
       24    2    1    2    0    0 -1.04087517019E+02  1.78258802654E+02 -9.11747294268E+01  2.39045883052E+02  7.88650175640E+01  1.5718E-13  9.0
      -24    2    1    2    0    0  1.04087517019E+02 -1.78258802654E+02  9.10350729388E+01  2.39186661093E+02  7.94510063953E+01  7.7977E-15  9.0
       -3    1    3    3    0  500 -2.99097044273E+01  1.00346884602E+02 -1.18364208669E+01  1.05376413524E+02  0.00000000000E+00  0.0000E+00  9.0
        4    1    3    3  500    0 -7.41778125918E+01  7.79119180522E+01 -7.93383085599E+01  1.33669469528E+02  5.87386917370E-01  0.0000E+00  9.0
        3    1    4    4  504    0  4.33379934931E+01 -5.38766254477E+01  7.13699596741E+01  9.93707381150E+01  0.00000000000E+00  0.0000E+00  9.0
       -4    1    4    4    0  504  6.07495235260E+01 -1.24382177206E+02  1.96651132647E+01  1.39815922978E+02  5.87386917370E-01  0.0000E+00  9.0
</event>
<event>
 8    1   5.1859766E+00   4.9900000E+02  -1.0000000E+00   9.3510000E-02
       11   -1    0    0    0    0  0.00000000000E+00  0.00000000000E+00  2.49028115790E+02  2.49028115790E+02  0.00000000000E+00  0.0000E+00  9.0
      -11   -1    0    0    0    0  0.00000000000E+00  0.00000000000E+00 -2.49933090180E+02  2.49933090180E+02  0.00000000000E+00  0.0000E+00  9.0
       24    2    1    2    0    0  4.64055274848E+01 -2.79278356240E+01 -2.28272889684E+02  2.49154003768E+02  8.38794876304E+01  6.5937E-14  9.0
      -24    2    1    2    0    0 -4.64055274848E+01  2.79278356240E+01  2.27367915284E+02  2.49807202203E+02  8.81704734502E+01  7.3818E-14  9.0
       -3    1    3    3    0  500  5.73312057071E+01 -1.72289437075E+01 -2.25863859365E+02  2.33662548596E+02  0.00000000000E+00  0.0000E+00  9.0
        4    1    3    3  500    0 -1.09256782224E+01 -1.06988919166E+01 -2.40903031836E+00  1.54914551714E+01  5.87386917370E-01  0.0000E+00  9.0
        1    1    4    4  504    0  6.55848139408E+00  3.09873609094E+01  1.64611551830E+02  1.67631122439E+02  0.00000000000E+00  0.0000E+00  9.0
       -2    1    4    4    0  504 -5.29640088788E+01 -3.05952528537E+00  6.27563634540E+01  8.21760797645E+01  0.00000000000E+00  0.0000E+00  9.0
</event>
<event>
 8    1   5.1859766E+00   4.9810000E+02  -1.0000000E+00   9.3530000E-02
       11   -1    0    0    0    0  0.00000000000E+00  0.00000000000E+00  2.49991179390E+02  2.49991179390E+02  0.00000000000E+00  0.0000E+00  9.0
      -11   -1    0    0    0    0  0.00000000000E+00  0.00000000000E+00 -2.48068621600E+02  2.48068621600E+02  0.00000000000E+00  0.0000E+00  9.0
       24    2    1    2    0    0  1.21231584862E+01  3.26945242830E+01 -2.31661254223E+02  2.48582260697E+02  8.31282186471E+01  2.5694E-13  9.0
      -24    2    1    2    0    0 -1.21231584862E+01 -3.26945242830E+01  2.33583812013E+02  2.49477540291E+02  8.03849674087E+01  2.7176E-14  9.0
       -3    1    3    3    0  500  1.11423900456E+01  4.83077516547E+00 -2.16499683873E+02  2.16840038650E+02  0.00000000000E+00  0.0000E+00  9.0
        4    1    3    3  500    0  9.80768440577E-01  2.78637491175E+01 -1.51615703496E+01  3.17422220469E+01  5.87386917370E-01  0.0000E+00  9.0
        1    1    4    4  504    0  2.86424967474E+01 -2.61767486809E+01  1.64360432843E+02  1.68878555998E+02  0.00000000000E+00  0.0000E+00  9.0
       -2    1    4    4    0  504 -4.07656552336E+01 -6.51777560205E+00  6.92233791696E+01  8.05989842931E+01  0.00000000000E+00  0.0000E+00  9.0
</event>
<event>
 8    1   5.1859766E+00   4.8250000E+02  -1.0000000E+00   9.3890000E-02
       11   -1    0    0    0    0  0.00000000000E+00  0.00000000000E+00  2.32824802930E+02  2.32824802930E+02  0.00000000000E+00  0.0000E+00  9.0
      -11   -1    0    0    0    0  0.00000000000E+00  0.00000000000E+00 -2.50000000000E+02  2.50000000000E+02  0.00000000000E+00  0.0000E+00  9.0
       24    2    1    2    0    0 -5.65368936820E+00 -1.26744117870E+01 -2.35209469854E+02  2.49341873333E+02  8.15798392429E+01  5.8438E-14  9.0
      -24    2    1    2    0    0  5.65368936820E+00  1.26744117870E+01  2.18034272784E+02  2.33482929598E+02  8.23573274675E+01  1.1734E-14  9.0
      -13    1    3    3    0    0 -3.47585822586E+01 -1.42298685383E+01 -2.00639561282E+02  2.04124699444E+02  1.05700000000E-01  0.0000E+00  9.0
       14    1    3    3    0    0  2.91048928904E+01  1.55545675131E+00 -3.45699085714E+01  4.52171738889E+01  0.00000000000E+00  0.0000E+00  9.0
        1    1    4    4  500    0 -8.39321025974E+00 -3.00776804297E+01  1.39658124928E+02  1.43106620032E+02  0.00000000000E+00  0.0000E+00  9.0
       -2    1    4    4    0  500  1.40468996279E+01  4.27520922167E+01  7.83761478552E+01  9.03763095655E+01  0.00000000000E+00  0.0000E+00  9.0
</event>
<event>
 8    1   5.1859766E+00   5.0000000E+02  -1.0000000E+00   9.3490000E-02
       11   -1    0    0    0    0  0.00000000000E+00  0.00000000000E+00  2.49989631380E+02  2.49989631380E+02  0.00000000000E+00  0.0000E+00  9.0
      -11   -1    0    0    0    0  0.00000000000E+00  0.00000000000E+00 -2.49999767780E+02  2.49999767780E+02  0.00000000000E+00  0.0000E+00  9.0
       24    2    1    2    0    0  2.03967219648E+01 -2.18341908093E+02 -9.36423176119E+01  2.47864722080E+02  6.76669912692E+01  1.2511E-13  9.0
      -24    2    1    2    0    0 -2.03967219648E+01  2.18341908093E+02  9.36321812079E+01  2.52124677073E+02  8.19185713680E+01  2.2405E-13  9.0
       -1    1    3    3    0  500 -6.05840339381E+00 -1.12960157695E+02 -7.95726904398E+01  1.38305873129E+02  0.00000000000E+00  0.0000E+00  9.0
        2    1    3    3  500    0  2.64551253586E+01 -1.05381750398E+02 -1.40696271721E+01  1.09558848951E+02  0.00000000000E+00  0.0000E+00  9.0
        1    1    4    4  504    0  2.73319283181E+01  1.34987569513E+02  4.87064970688E+01  1.46085595064E+02  0.00000000000E+00  0.0000E+00  9.0
       -2    1    4    4    0  504 -4.77286502829E+01  8.33543385804E+01  4.49256841391E+01  1.06039082009E+02  0.00000000000E+00  0.0000E+00  9.0
</event>
<event>
 8    1   5.1859766E+00   4.8340000E+02  -1.0000000E+00   9.3860000E-02
       11   -1    0    0    0    0  0.00000000000E+00  0.00000000000E+00  2.49972199530E+02  2.49972199530E+02  0.00000000000E+00  0.0000E+00  9.0
      -11   -1    0    0    0    0  0.00000000000E+00  0.00000000000E+00 -2.33729363980E+02  2.33729363980E+02  0.00000000000E+00  0.0000E+00  9.0
       24    2    1    2    0    0 -1.23125606012E+01 -1.65121490509E+01 -2.19396295810E+02  2.33973174677E+02  7.86413481470E+01  5.6211E-14  9.0
      -24    2    1    2    0    0  1.23125606012E+01  1.65121490509E+01  2.35639131360E+02  2.49728388827E+02  8.00888115964E+01  1.4796E-14  9.0
       -1    1    3    3    0  500  2.88100307259E+01  1.61839242902E+00 -1.38090756849E+02  1.41073364572E+02  0.00000000000E+00  0.0000E+00  9.0
        2    1    3    3  500    0 -4.11225913271E+01 -1.81305414799E+01 -8.13055389611E+01  9.28998101051E+01  0.00000000000E+00  0.0000E+00  9.0
        1    1    4    4  504    0  2.22367218430E+01  2.42215725361E+01  3.26058377218E+01  4.63065549138E+01  0.00000000000E+00  0.0000E+00  9.0
       -2    1    4    4    0  504 -9.92416124179E+00 -7.70942348516E+00  2.03033293638E+02  2.03421833913E+02  0.00000000000E+00  0.0000E+00  9.0
</event>
<event>
 8    1   5.1859766E+00   4.9770000E+02  -1.0000000E+00   9.3540000E-02
       11   -1    0    0    0    0  0.00000000000E+00  0.00000000000E+00  2.48510492820E+02  2.48510492820E+02  0.00000000000E+00  0.0000E+00  9.0
      -11   -1    0    0    0    0  0.00000000000E+00  0.00000000000E+00 -2.49161866770E+02  2.49161866770E+02  0.00000000000E+00  0.0000E+00  9.0
       24    2    1    2    0    0 -1.44298803719E+01 -2.02124969045E+02 -1.20717460153E+02  2.48640188443E+02  7.86543931654E+01  1.5020E-14  9.0
      -24    2    1    2    0    0  1.44298803719E+01  2.02124969045E+02  1.20066086203E+02  2.49032171151E+02  8.08605753940E+01  8.1706E-14  9.0
       -3    1    3    3    0  500 -1.52266235903E+01 -2.05649476903E+02 -1.02918411879E+02  2.30468559505E+02  0.00000000000E+00  0.0000E+00  9.0
        4    1    3    3  500    0  7.96743218358E-01  3.52450785840E+00 -1.77990482747E+01  1.81716289385E+01  5.87386917370E-01  0.0000E+00  9.0
        3    1    4    4  504    0  2.63867877652E+01  8.76998061209E+01  9.36517226102E+01  1.30989174019E+02  0.00000000000E+00  0.0000E+00  9.0
       -4    1    4    4    0  504 -1.19569073932E+01  1.14425162924E+02  2.64143635932E+01  1.18042997132E+02  5.87386917370E-01  0.0000E+00  9.0
</event>
<event>
 8    1   5.1859766E+00   4.7180000E+02  -1.0000000E+00   9.4140000E-02
       11   -1    0    0    0    0  0.00000000000E+00  0.00000000000E+00  2.47183435680E+02  2.47183435680E+02  0.00000000000E+00  0.0000E+00  9.0
      -11   -1    0    0    0    0  0.00000000000E+00  0.00000000000E+00 -2.25129756470E+02  2.25129756470E+02  0.00000000000E+00  0.0000E+00  9.0
       24    2    1    2    0    0  7.15221908555E+00  1.92484504278E+01 -2.10727320793E+02  2.25142474761E+02  7.65602581696E+01  7.8228E-14  9.0
      -24    2    1    2    0    0 -7.15221908555E+00 -1.92484504278E+01  2.32781000003E+02  2.47170717400E+02  8.05277125957E+01  1.8659E-13  9.0
       -3    1    3    3    0  500  2.59375156147E+01  9.50922206849E+00 -1.99068255752E+02  2.00975994757E+02  0.00000000000E+00  0.0000E+00  9.0
        4    1    3    3  500    0 -1.87852965292E+01  9.73922835934E+00 -1.16590650412E+01  2.41664800033E+01  5.87386917370E-01  0.0000E+00  9.0
       13    1    4    4    0    0 -3.87333769989E+01  6.66496583254E+00  8.16683238533E+01  9.06334516434E+01  1.05700000000E-01  0.0000E+00  9.0
      -14    1    4    4    0    0  3.15811579134E+01 -2.59134162604E+01  1.51112676150E+02  1.56537265757E+02  0.00000000000E+00  0.0000E+00  9.0
</event>
<event>
 8    1   5.1859766E+00   2.3740000E+02  -1.0000000E+00   1.0250000E-01
       11   -1    0    0    0    0  0.00000000000E+00  0.00000000000E+00  1.98563504940E+02  1.98563504940E+02  0.00000000000E+00  0.0000E+00  9.0
      -11   -1    0    0    0    0  0.00000000000E+00  0.00000000000E+00 -7.09291780530E+01  7.09291780530E+01  0.00000000000E+00  0.0000E+00  9.0
       24    2    1    2    0    0 -5.75033668316E+01 -4.07258951149E+00 -1.22028583059E+01  9.90837732921E+01  7.96584031768E+01  1.6529E-14  9.0
      -24    2    1    2    0    0  5.75033668316E+01  4.07258951149E+00  1.39837185189E+02  1.70408909696E+02  7.84954454716E+01  9.6827E-14  9.0
      -13    1    3    3    0    0  9.77802078815E+00 -2.58145024564E+01 -4.27547767561E+00  2.79336554974E+01  1.05700000000E-01  0.0000E+00  9.0
       14    1    3    3    0    0 -6.72813876198E+01  2.17419129449E+01 -7.92738063033E+00  7.11501177947E+01  0.00000000000E+00  0.0000E+00  9.0
        3    1    4    4  500    0  2.62141237564E+01 -2.38389611101E+01  1.45734970871E+01  3.83127024428E+01  0.00000000000E+00  0.0000E+00  9.0
       -4    1    4    4    0  500  3.12892430752E+01  2.79115506216E+01  1.25263688102E+02  1.32096207253E+02  5.87386917370E-01  0.0000E+00  9.0
</event>
<event>
 8    1   5.1859766E+00   4.5380000E+02  -1.0000000E+00   9.4580000E-02
       11   -1    0    0    0    0  0.00000000000E+00  0.00000000000E+00  2.46809738210E+02  2.46809738210E+02  0.00000000000E+00  0.0000E+00  9.0
      -11   -1    0    0    0    0  0.00000000000E+00  0.00000000000E+00 -2.08580389220E+02  2.08580389220E+02  0.00000000000E+00  0.0000E+00  9.0
       24    2    1    2    0    0 -2.62703806502E+01 -5.08427501346E+01 -1.85023483946E+02  2.10805545868E+02  8.32476451086E+01  5.0398E-14  9.0
      -24    2    1    2    0    0  2.62703806502E+01  5.08427501346E+01  2.23252832926E+02  2.44584581554E+02  8.18820614278E+01  8.8674E-14  9.0
       -3    1    3    3    0  500  3.00024989491E+01 -1.54719613311E+01 -5.02998179381E+01  6.05772499808E+01  0.00000000000E+00  0.0000E+00  9.0
        4    1    3    3  500    0 -5.62728795993E+01 -3.53707888035E+01 -1.34723666008E+02  1.50228295887E+02  5.87386917370E-01  0.0000E+00  9.0
        3    1    4    4  504    0  3.32751116366E+01 -3.79702574612E+00  3.50239383540E+01  4.84595369021E+01  0.00000000000E+00  0.0000E+00  9.0
       -4    1    4    4    0  504 -7.00473098632E+00  5.46397758807E+01  1.88228894572E+02  1.96125044652E+02  5.87386917370E-01  0.0000E+00  9.0
</event>
<event>
 8    1   5.1859766E+00   2.8600000E+02  -1.0000000E+00   1.0010000E-01
       11   -1    0    0    0    0  0.00000000000E+00  0.00000000000E+00  8.18378237980E+01  8.18378237980E+01  0.00000000000E+00  0.0000E+00  9.0
      -11   -1    0    0    0    0  0.00000000000E+00  0.00000000000E+00 -2.49911811200E+02  2.49911811200E+02  0.00000000000E+00  0.0000E+00  9.0
       24    2    1    2    0    0  3.48364200615E+01  2.33878788619E+00 -2.12216696408E+02  2.29557021273E+02  8.02586673829E+01  7.2264E-14  9.0
      -24    2    1    2    0    0 -3.48364200615E+01 -2.33878788619E+00  4.41427090035E+01  1.02192613726E+02  8.52977458706E+01  3.4961E-14  9.0
       -3    1    3    3    0  500  1.14640972129E+01 -1.24499702984E+01 -1.97496102179E+02  1.98219922463E+02  0.00000000000E+00  0.0000E+00  9.0
        4    1    3    3  500    0  2.33723228486E+01  1.47887581846E+01 -1.47205942283E+01  3.13370988096E+01  5.87386917370E-01  0.0000E+00  9.0
        3    1    4    4  504    0 -1.41873285717E+01 -4.23539291230E+01  3.37297860532E+01  5.59717256421E+01  0.00000000000E+00  0.0000E+00  9.0
       -4    1    4    4    0  504 -2.06490914898E+01  4.00151412368E+01  1.04129229503E+01  4.62208880844E+01  5.87386917370E-01  0.0000E+00  9.0
</event>
<event>
 8    1   5.1859766E+00   4.3310000E+02  -1.0000000E+00   9.5110000E-02
       11   -1    0    0    0    0  0.00000000000E+00  0.00000000000E+00  2.49445531000E+02  2.49445531000E+02  0.00000000000E+00  0.0000E+00  9.0
      -11   -1    0    0    0    0  0.00000000000E+00  0.00000000000E+00 -1.87984933360E+02  1.87984933360E+02  0.00000000000E+00  0.0000E+00  9.0
       24    2    1    2    0    0 -2.58398188544E+00 -5.69216560631E+01 -1.63551657546E+02  1.91062190484E+02  8.06775312892E+01  2.4999E-13  9.0
      -24    2    1    2    0    0  2.58398188544E+00  5.69216560631E+01  2.25012255176E+02  2.46368273871E+02  8.25836515258E+01  9.4484E-14  9.0
       -1    1    3    3    0  500  3.21471749923E+01 -4.13767263711E+01 -5.46789335769E+01  7.57315001983E+01  0.00000000000E+00  0.0000E+00  9.0
        2    1    3    3  500    0 -3.47311568777E+01 -1.55449296920E+01 -1.08872723969E+02  1.15330690285E+02  0.00000000000E+00  0.0000E+00  9.0
        1    1    4    4  504    0  2.10700549469E+01  6.86396972506E+01  1.26524841665E+02  1.45478145481E+02  0.00000000000E+00  0.0000E+00  9.0
       -2    1    4    4    0  504 -1.84860730615E+01 -1.17180411875E+01  9.84874135110E+01  1.00890128390E+02  0.00000000000E+00  0.0000E+00  9.0
</event>
<event>
 8    1   5.1859766E+00   4.8580000E+02  -1.0000000E+00   9.3810000E-02
       11   -1    0    0    0    0  0.00000000000E+00  0.00000000000E+00  2.49979325200E+02  2.49979325200E+02  0.00000000000E+00  0.0000E+00  9.0
      -11   -1    0    0    0    0  0.00000000000E+00  0.00000000000E+00 -2.36044959190E+02  2.36044959190E+02  0.00000000000E+00  0.0000E+00  9.0
       24    2    1    2    0    0 -1.10532898375E+02  1.01986020022E+01 -1.93298443507E+02  2.37800451326E+02  8.28446333982E+01  1.0782E-13  9.0
      -24    2    1    2    0    0  1.10532898375E+02 -1.01986020022E+01  2.07232809507E+02  2.48223833064E+02  7.96749700932E+01  6.4969E-14  9.0
       -1    1    3    3    0  500 -9.54482260626E+01 -3.59282413200E+00 -8.58553489244E+01  1.28430577289E+02  0.00000000000E+00  0.0000E+00  9.0
        2    1    3    3  500    0 -1.50846723120E+01  1.37914261342E+01 -1.07443094582E+02  1.09369874037E+02  0.00000000000E+00  0.0000E+00  9.0
        1    1    4    4  504    0  9.08958878999E+01  2.49840906399E+01  1.63734450443E+02  1.88931832903E+02  0.00000000000E+00  0.0000E+00  9.0
       -2    1    4    4    0  504  1.96370104747E+01 -3.51826926421E+01  4.34983590636E+01  5.92920001615E+01  0.00000000000E+00  0.0000E+00  9.0
</event>
<event>
 8    1   5.1859766E+00   4.9970000E+02  -1.0000000E+00   9.3500000E-02
       11   -1    0    0    0    0  0.00000000000E+00  0.00000000000E+00  2.49999484210E+02  2.49999484210E+02  0.00000000000E+00  0.0000E+00  9.0
      -11   -1    0    0    0    0  0.00000000000E+00  0.00000000000E+00 -2.49726885640E+02  2.49726885640E+02  0.00000000000E+00  0.0000E+00  9.0
       24    2    1    2    0    0 -6.39765399110E+00  6.81598666216E+00 -2.36364626870E+02  2.49771345437E+02  8.01879075383E+01  8.2735E-14  9.0
      -24    2    1    2    0    0  6.39765399110E+00 -6.81598666216E+00  2.36637225430E+02  2.49955024405E+02  7.99559260800E+01  1.0706E-14  9.0
       -1    1    3    3    0  500  1.74516252526E+01  1.21467873848E+01 -2.18420701272E+02  2.19453198682E+02  0.00000000000E+00  0.0000E+00  9.0
        2    1    3    3  500    0 -2.38492792437E+01 -5.33080072265E+00 -1.79439255981E+01  3.03181467550E+01  0.00000000000E+00  0.0000E+00  9.0
        1    1    4    4  504    0 -7.18601857496E+00 -1.24120421632E+01  1.56851434031E+00  1.44276779440E+01  0.00000000000E+00  0.0000E+00  9.0
       -2    1    4    4    0  504  1.35836725661E+01  5.59605550107E+00  2.35068711090E+02  2.35527346461E+02  0.00000000000E+00  0.0000E+00  9.0
</event>
<event>
 8    1   5.1859766E+00   5.0000000E+02  -1.0000000E+00   9.3490000E-02
       11   -1    0    0    0    0  0.00000000000E+00  0.00000000000E+00  2.49999999990E+02  2.49999999990E+02  0.00000000000E+00  0.0000E+00  9.0
      -11   -1    0    0    0    0  0.00000000000E+00  0.00000000000E+00 -2.49999999970E+02  2.49999999970E+02  0.00000000000E+00  0.0000E+00  9.0
       24    2    1    2    0    0  3.05086318609E+01 -2.44098089229E+01 -2.33764691791E+02  2.49736943403E+02  7.87146389340E+01  4.9809E-14  9.0
      -24    2    1    2    0    0 -3.05086318609E+01  2.44098089229E+01  2.33764691801E+02  2.50263056561E+02  8.03682210651E+01  2.6277E-14  9.0
       -1    1    3    3    0  500  4.37184553730E+01 -4.38132579107E+01 -1.39871155305E+02  1.52953734819E+02  0.00000000000E+00  0.0000E+00  9.0
        2    1    3    3  500    0 -1.32098235121E+01  1.94034489877E+01 -9.38935364859E+01  9.67832085833E+01  0.00000000000E+00  0.0000E+00  9.0
        1    1    4    4  504    0 -1.12496170585E+01  4.67987789110E+01  1.98565162666E+02  2.04315450753E+02  0.00000000000E+00  0.0000E+00  9.0
       -2    1    4    4    0  504 -1.92590148025E+01 -2.23889699881E+01  3.51995291342E+01  4.59476058088E+01  0.00000000000E+00  0.0000E+00  9.0
</event>
<event>
 8    1   5.1859766E+00   4.6070000E+02  -1.0000000E+00   9.4410000E-02
       11   -1    0    0    0    0  0.00000000000E+00  0.00000000000E+00  2.12341254310E+02  2.12341254310E+02  0.00000000000E+00  0.0000E+00  9.0
      -11   -1    0    0    0    0  0.00000000000E+00  0.00000000000E+00 -2.49843817830E+02  2.49843817830E+02  0.00000000000E+00  0.0000E+00  9.0
       24    2    1    2    0    0 -4.81225529449E+01 -4.57428803832E+01 -2.24323657722E+02  2.47732473593E+02  8.14989806744E+01  2.5397E-14  9.0
      -24    2    1    2    0    0  4.81225529449E+01  4.57428803832E+01  1.86821094202E+02  2.14452598538E+02  8.17288478650E+01  2.2693E-13  9.0
       -3    1    3    3    0  500 -4.62479585841E+01 -4.28509191464E+01 -7.33684157313E+01  9.67367529526E+01  0.00000000000E+00  0.0000E+00  9.0
        4    1    3    3  500    0 -1.87459436077E+00 -2.89196123678E+00 -1.50955241990E+02  1.50995720640E+02  5.87386917370E-01  0.0000E+00  9.0
        3    1    4    4  504    0  5.86790588246E+01  7.07810013457E-01  9.56491973245E+01  1.12216317389E+02  0.00000000000E+00  0.0000E+00  9.0
       -4    1    4    4    0  504 -1.05565058797E+01  4.50350703697E+01  9.11718968772E+01  1.02236281149E+02  5.87386917370E-01  0.0000E+00  9.0
</event>
<event>
 8    1   5.1859766E+00   4.9600000E+02  -1.0000000E+00   9.3580000E-02
       11   -1    0    0    0    0  0.00000000000E+00  0.00000000000E+00  2.49999952560E+02  2.49999952560E+02  0.00000000000E+00  0.0000E+00  9.0
      -11   -1    0    0    0    0  0.00000000000E+00  0.00000000000E+00 -2.46032315740E+02  2.46032315740E+02  0.00000000000E+00  0.0000E+00  9.0
       24    2    1    2    0    0 -5.16926099531E+01  7.08444884468E+01 -2.05859732720E+02  2.55019982963E+02  1.22335173551E+02  7.6651E-15  9.0
      -24    2    1    2    0    0  5.16926099531E+01 -7.08444884468E+01  2.09827369550E+02  2.41012285330E+02  7.98018120132E+01  6.9284E-14  9.0
       -3    1    3    3    0  500 -3.67949029973E+01 -2.59957669794E+01 -1.05720241682E+02  1.14919164149E+02  0.00000000000E+00  0.0000E+00  9.0
        4    1    3    3  500    0 -1.48977069558E+01  9.68402554262E+01 -1.00139491039E+02  1.40100818814E+02  5.87386917370E-01  0.0000E+00  9.0
       13    1    4    4    0    0 -7.70540414366E+00 -5.43517812373E+01  1.21220230568E+02  1.33070826435E+02  1.05700000000E-01  0.0000E+00  9.0
      -14    1    4    4    0    0  5.93980140968E+01 -1.64927072096E+01  8.86071389821E+01  1.07941458895E+02  0.00000000000E+00  0.0000E+00  9.0
</event>
<event>
 8    1   5.1859766E+00   4.9900000E+02  -1.0000000E+00   9.3510000E-02
       11   -1    0    0    0    0  0.00000000000E+00  0.00000000000E+00  2.49999999220E+02  2.49999999220E+02  0.00000000000E+00  0.0000E+00  9.0
      -11   -1    0    0    0    0  0.00000000000E+00  0.00000000000E+00 -2.49048018940E+02  2.49048018940E+02  0.00000000000E+00  0.0000E+00  9.0
       24    2    1    2    0    0 -2.75051985905E+01  2.45470535325E+01 -2.32980597171E+02  2.50205987744E+02  8.34504874647E+01  1.8119E-13  9.0
      -24    2    1    2    0    0  2.75051985905E+01 -2.45470535325E+01  2.33932577451E+02  2.48842030427E+02  7.64121163642E+01  4.6772E-14  9.0
       -1    1    3    3    0  500 -5.51333788848E+00 -1.97859391397E+01 -1.64158229549E+02  1.65438219922E+02  0.00000000000E+00  0.0000E+00  9.0
        2    1    3    3  500    0 -2.19918607020E+01  4.43329926722E+01 -6.88223676225E+01  8.47677678223E+01  0.00000000000E+00  0.0000E+00  9.0
        1    1    4    4  504    0  3.88378464747E+01 -4.52663330688E+00  4.99854835439E+01  6.34619357804E+01  0.00000000000E+00  0.0000E+00  9.0
       -2    1    4    4    0  504 -1.13326478842E+01 -2.00204202256E+01  1.83947093908E+02  1.85380094646E+02  0.00000000000E+00  0.0000E+00  9.0
</event>
<event>
 8    1   5.1859766E+00   4.8320000E+02  -1.0000000E+00   9.3870000E-02
       11   -1    0    0    0    0  0.00000000000E+00  0.00000000000E+00  2.50000000000E+02  2.50000000000E+02  0.00000000000E+00  0.0000E+00  9.0
      -11   -1    0    0    0    0  0.00000000000E+00  0.00000000000E+00 -2.33527355170E+02  2.33527355170E+02  0.00000000000E+00  0.0000E+00  9.0
       24    2    1    2    0    0  1.18168217694E+02 -9.11878785407E+00 -1.86403856599E+02  2.34955999549E+02  8.00689952745E+01  2.1000E-13  9.0
      -24    2    1    2    0    0 -1.18168217694E+02  9.11878785407E+00  2.02876501439E+02  2.48571355614E+02  8.11293043891E+01  3.1066E-14  9.0
       -1    1    3    3    0  500  1.00424752851E+02 -2.30039620480E+01 -9.27329106177E+01  1.38613512930E+02  0.00000000000E+00  0.0000E+00  9.0
        2    1    3    3  500    0  1.77434648433E+01  1.38851741939E+01 -9.36709459808E+01  9.63424866193E+01  0.00000000000E+00  0.0000E+00  9.0
        3    1    4    4  504    0 -4.15533615848E-02  1.56527644193E+01  6.51651499043E+01  6.70187102435E+01  0.00000000000E+00  0.0000E+00  9.0
       -4    1    4    4    0  504 -1.18126664333E+02 -6.53397656520E+00  1.37711351534E+02  1.81552645370E+02  5.87386917370E-01  0.0000E+00  9.0
</event>
<event>
 8    1   5.1859766E+00   4.9730000E+02  -1.0000000E+00   9.3550000E-02
       11   -1    0    0    0    0  0.00000000000E+00  0.00000000000E+00  2.50000000000E+02  2.50000000000E+02  0.00000000000E+00  0.0000E+00  9.0
      -11   -1    0    0    0    0  0.00000000000E+00  0.00000000000E+00 -2.47296464230E+02  2.47296464230E+02  0.00000000000E+00  0.0000E+00  9.0
       24    2    1    2    0    0  5.74564537034E+01 -8.39088955012E+01 -2.10881613181E+02  2.47864839453E+02  8.13878187637E+01  2.5849E-14  9.0
      -24    2    1    2    0    0 -5.74564537034E+01  8.39088955012E+01  2.13585148951E+02  2.49431624778E+02  7.90921789479E+01  9.3141E-14  9.0
      -13    1    3    3    0    0  9.49978886496E+00  1.34906820764E+01 -9.38648385056E+00  1.89831963307E+01  1.05700000000E-01  0.0000E+00  9.0
       14    1    3    3    0    0  4.79566648384E+01 -9.73995775775E+01 -2.01495129330E+02  2.28881643122E+02  0.00000000000E+00  0.0000E+00  9.0
        3    1    4    4  500    0 -2.37627635655E-01 -1.12876468528E+01  5.29226191729E+01  5.41135016284E+01  0.00000000000E+00  0.0000E+00  9.0
       -4    1    4    4    0  500 -5.72188260677E+01  9.51965423539E+01  1.60662529778E+02  1.95318123150E+02  5.87386917370E-01  0.0000E+00  9.0
</event>
<event>
 8    1   5.1859766E+00   4.7210000E+02  -1.0000000E+00   9.4130000E-02
       11   -1    0    0    0    0  0.00000000000E+00  0.00000000000E+00  2.23437673120E+02  2.23437673120E+02  0.00000000000E+00  0.0000E+00  9.0
      -11   -1    0    0    0    0  0.00000000000E+00  0.00000000000E+00 -2.49346929070E+02  2.49346929070E+02  0.00000000000E+00  0.0000E+00  9.0
       24    2    1    2    0    0  3.40824995699E+01  3.54256717590E+01 -2.33723815624E+02  2.51488380448E+02  7.87590535388E+01  5.0018E-14  9.0
      -24    2    1    2    0    0 -3.40824995699E+01 -3.54256717590E+01  2.07814559674E+02  2.21296221737E+02  5.80390519072E+01  1.0474E-13  9.0
       -1    1    3    3    0  500  5.09014951694E+01  2.03149853462E-01 -1.00367617153E+02  1.12537380693E+02  0.00000000000E+00  0.0000E+00  9.0
        2    1    3    3  500    0 -1.68189955995E+01  3.52225219056E+01 -1.33356198471E+02  1.38950999755E+02  0.00000000000E+00  0.0000E+00  9.0
        3    1    4    4  504    0 -2.60200499341E+01 -5.17040063589E+01  1.58958270468E+02  1.69168788558E+02  0.00000000000E+00  0.0000E+00  9.0
       -4    1    4    4    0  504 -8.06244963578E+00  1.62783345998E+01  4.88562892058E+01  5.21274331789E+01  5.87386917370E-01  0.0000E+00  9.0
</event>
<event>
 8    1   5.1859766E+00   3.0190000E+02  -1.0000000E+00   9.9430000E-02
       11   -1    0    0    0    0  0.00000000000E+00  0.00000000000E+00  2.10968462260E+02  2.10968462260E+02  0.00000000000E+00  0.0000E+00  9.0
      -11   -1    0    0    0    0  0.00000000000E+00  0.00000000000E+00 -1.07973058310E+02  1.07973058310E+02  0.00000000000E+00  0.0000E+00  9.0
       24    2    1    2    0    0 -8.62579019007E+00 -7.77121435520E+00 -8.26376859832E+01  1.16127707873E+02  8.07580420905E+01  6.8342E-14  9.0
      -24    2    1    2    0    0  8.62579019007E+00  7.77121435520E+00  1.85633089932E+02  2.02813812703E+02  8.08640990570E+01  1.2251E-13  9.0
       -3    1    3    3    0  500 -4.31789704625E+01 -1.26641550203E+01 -5.79840320478E+01  7.33958601360E+01  0.00000000000E+00  0.0000E+00  9.0
        4    1    3    3  500    0  3.45531802724E+01  4.89294066507E+00 -2.46536539354E+01  4.27318477373E+01  5.87386917370E-01  0.0000E+00  9.0
       13    1    4    4    0    0  4.21036911732E+01  1.83243841316E+01  1.17879341817E+02  1.26507131277E+02  1.05700000000E-01  0.0000E+00  9.0
      -14    1    4    4    0    0 -3.34779009832E+01 -1.05531697764E+01  6.77537481151E+01  7.63066814257E+01  0.00000000000E+00  0.0000E+00  9.0
</event>
<event>
 8    1   5.1859766E+00   4.9800000E+02  -1.0000000E+00   9.3540000E-02
       11   -1    0    0    0    0  0.00000000000E+00  0.00000000000E+00  2.49999905030E+02  2.49999905030E+02  0.00000000000E+00  0.0000E+00  9.0
      -11   -1    0    0    0    0  0.00000000000E+00  0.00000000000E+00 -2.47993942320E+02  2.47993942320E+02  0.00000000000E+00  0.0000E+00  9.0
       24    2    1    2    0    0  1.06015181370E+02 -1.02151162574E+02 -1.82752336960E+02  2.48151285948E+02  8.06632838229E+01  9.6463E-15  9.0
      -24    2    1    2    0    0 -1.06015181370E+02  1.02151162574E+02  1.84758299670E+02  2.49842561405E+02  8.13117303749E+01  8.8192E-14  9.0
      -13    1    3    3    0    0  4.99865634051E+00  1.09397752203E+01 -1.96184692234E+00  1.21870941130E+01  1.05700000000E-01  0.0000E+00  9.0
       14    1    3    3    0    0  1.01016525030E+02 -1.13090937794E+02 -1.80790490037E+02  2.35964191835E+02  0.00000000000E+00  0.0000E+00  9.0
        1    1    4    4  500    0 -3.54754708272E+01  5.70447702114E+01  1.39106633594E+02  1.54477410480E+02  0.00000000000E+00  0.0000E+00  9.0
       -2    1    4    4    0  500 -7.05397105432E+01  4.51063923626E+01  4.56516660760E+01  9.53651509253E+01  0.00000000000E+00  0.0000E+00  9.0
</event>
<event>
 8    1   5.1859766E+00   3.3540000E+02  -1.0000000E+00   9.8130000E-02
       11   -1    0    0    0    0  0.00000000000E+00  0.00000000000E+00  1.12516247430E+02  1.12516247430E+02  0.00000000000E+00  0.0000E+00  9.0
      -11   -1    0    0    0    0  0.00000000000E+00  0.00000000000E+00 -2.50000000000E+02  2.50000000000E+02  0.00000000000E+00  0.0000E+00  9.0
       24    2    1    2    0    0  1.30209281690E+00 -2.27416935951E-01 -2.27046593351E+02  2.40547859293E+02  7.94441306455E+01  1.2030E-13  9.0
      -24    2    1    2    0    0 -1.30209281690E+00  2.27416935951E-01  8.95628407853E+01  1.21968388136E+02  8.27830785295E+01  2.8672E-14  9.0
       -3    1    3    3    0  500 -7.47798604985E-01 -6.67751988082E+00  5.01651368160E+00  8.38533744283E+00  0.00000000000E+00  0.0000E+00  9.0
        4    1    3    3  500    0  2.04989142188E+00  6.45010294487E+00 -2.32063107033E+02  2.32162521851E+02  5.87386917370E-01  0.0000E+00  9.0
        3    1    4    4  504    0  3.38433148253E+01  2.02865317802E+01  6.01543922582E+01  7.19406994544E+01  0.00000000000E+00  0.0000E+00  9.0
       -4    1    4    4    0  504 -3.51454076422E+01 -2.00591148443E+01  2.94084485271E+01  5.00276886817E+01  5.87386917370E-01  0.0000E+00  9.0
</event>
<event>
 8    1   5.1859766E+00   4.5960000E+02  -1.0000000E+00   9.4430000E-02
       11   -1    0    0    0    0  0.00000000000E+00  0.00000000000E+00  2.38844203820E+02  2.38844203820E+02  0.00000000000E+00  0.0000E+00  9.0
      -11   -1    0    0    0    0  0.00000000000E+00  0.00000000000E+00 -2.21100898820E+02  2.21100898820E+02  0.00000000000E+00  0.0000E+00  9.0
       24    2    1    2    0    0 -1.69641171336E+02 -9.98349087561E+01 -7.74068010113E+01  2.26343726773E+02  8.05886703454E+01  1.7847E-13  9.0
      -24    2    1    2    0    0  1.69641171336E+02  9.98349087561E+01  9.51501060173E+01  2.33601375875E+02  8.22856252146E+01  3.1866E-14  9.0
       -3    1    3    3    0  500 -8.17154279711E+01 -8.83803800995E+01 -2.37086060167E+01  1.22680889931E+02  0.00000000000E+00  0.0000E+00  9.0
        4    1    3    3  500    0 -8.79257433647E+01 -1.14545286566E+01 -5.36981949945E+01  1.03662836842E+02  5.87386917370E-01  0.0000E+00  9.0
        3    1    4    4  504    0  1.36837496079E+02  3.58771461708E+01  6.28984031623E+01  1.54815629285E+02  0.00000000000E+00  0.0000E+00  9.0
       -4    1    4    4    0  504  3.28036752567E+01  6.39577625853E+01  3.22517028550E+01  7.87857465897E+01  5.87386917370E-01  0.0000E+00  9.0
</event>
<event>
 8    1   5.1859766E+00   4.9090000E+02  -1.0000000E+00   9.3690000E-02
       11   -1    0    0    0    0  0.00000000000E+00  0.00000000000E+00  2.40952448590E+02  2.40952448590E+02  0.00000000000E+00  0.0000E+00  9.0
      -11   -1    0    0    0    0  0.00000000000E+00  0.00000000000E+00 -2.49999976140E+02  2.49999976140E+02  0.00000000000E+00  0.0000E+00  9.0
       24    2    1    2    0    0 -1.38281894788E+02 -9.98994267816E+01 -1.61767770184E+02  2.48477533831E+02  8.04393899207E+01  1.5331E-13  9.0
      -24    2    1    2    0    0  1.38281894788E+02  9.98994267816E+01  1.52720242634E+02  2.42474890890E+02  7.98049015080E+01  9.6557E-14  9.0
       -1    1    3    3    0  500 -1.44887249985E+02 -9.87009128216E+01 -1.36082164708E+02  2.21929134977E+02  0.00000000000E+00  0.0000E+00  9.0
        2    1    3    3  500    0  6.60535519746E+00 -1.19851396005E+00 -2.56856054767E+01  2.65483988539E+01  0.00000000000E+00  0.0000E+00  9.0
        1    1    4    4  504    0  2.26454841149E+01 -4.00322102447E+00  5.30195407808E+01  5.77920014706E+01  0.00000000000E+00  0.0000E+00  9.0
       -2    1    4    4    0  504  1.15636410673E+02  1.03902647806E+02  9.97007018535E+01  1.84682889420E+02  0.00000000000E+00  0.0000E+00  9.0
</event>
<event>
 8    1   5.1859766E+00   4.9420000E+02  -1.0000000E+00   9.3620000E-02
       11   -1    0    0    0    0  0.00000000000E+00  0.00000000000E+00  2.44401370280E+02  2.44401370280E+02  0.00000000000E+00  0.0000E+00  9.0
      -11   -1    0    0    0    0  0.00000000000E+00  0.00000000000E+00 -2.49810762580E+02  2.49810762580E+02  0.00000000000E+00  0.0000E+00  9.0
       24    2    1    2    0    0  6.75829889051E+00 -3.22916968136E+01 -2.33127225207E+02  2.50487983292E+02  8.54839069890E+01  1.0673E-15  9.0
      -24    2    1    2    0    0 -6.75829889051E+00  3.22916968136E+01  2.27717832907E+02  2.43724149574E+02  8.03593266193E+01  2.3390E-14  9.0
      -13    1    3    3    0    0 -3.45917730104E+01  2.68930625627E+00 -1.22421169198E+02  1.27242983965E+02  1.05700000000E-01  0.0000E+00  9.0
       14    1    3    3    0    0  4.13500719009E+01 -3.49810030699E+01 -1.10706056009E+02  1.23244999327E+02  0.00000000000E+00  0.0000E+00  9.0
        1    1    4    4  500    0  2.51778864268E+01  4.48287316330E+01  1.16661257207E+02  1.27488784126E+02  0.00000000000E+00  0.0000E+00  9.0
       -2    1    4    4    0  500 -3.19361853173E+01 -1.25370348194E+01  1.11056575699E+02  1.16235365448E+02  0.00000000000E+00  0.0000E+00  9.0
</event>
<event>
 8    1   5.1859766E+00   3.9190000E+02  -1.0000000E+00   9.6270000E-02
       11   -1    0    0    0    0  0.00000000000E+00  0.00000000000E+00  1.53588382120E+02  1.53588382120E+02  0.00000000000E+00  0.0000E+00  9.0
      -11   -1    0    0    0    0  0.00000000000E+00  0.00000000000E+00 -2.49984990660E+02  2.49984990660E+02  0.00000000000E+00  0.0000E+00  9.0
       24    2    1    2    0    0  3.88045780589E+00 -1.06524372336E+01 -2.30677149797E+02  2.46018678590E+02  8.47626710583E+01  2.4341E-14  9.0
      -24    2    1    2    0    0 -3.88045780589E+00  1.06524372336E+01  1.34280541257E+02  1.57554694194E+02  8.16314003962E+01  2.1375E-13  9.0
       -1    1    3    3    0  500  4.06646743649E+00 -1.79726601704E+01 -2.36155667127E+02  2.36873493214E+02  0.00000000000E+00  0.0000E+00  9.0
        2    1    3    3  500    0 -1.86009630602E-01  7.32022293684E+00  5.47851733027E+00  9.14518537624E+00  0.00000000000E+00  0.0000E+00  9.0
        3    1    4    4  504    0  3.31822713006E+01 -1.42984526344E+01  7.56757098104E+01  8.38589406784E+01  0.00000000000E+00  0.0000E+00  9.0
       -4    1    4    4    0  504 -3.70627291064E+01  2.49508898679E+01  5.86048314463E+01  7.36957535158E+01  5.87386917370E-01  0.0000E+00  9.0
</event>
<event>
 8    1   5.1859766E+00   4.1630000E+02  -1.0000000E+00   9.5560000E-02
       11   -1    0    0    0    0  0.00000000000E+00  0.00000000000E+00  2.49906053700E+02  2.49906053700E+02  0.00000000000E+00  0.0000E+00  9.0
      -11   -1    0    0    0    0  0.00000000000E+00  0.00000000000E+00 -1.73331030640E+02  1.73331030640E+02  0.00000000000E+00  0.0000E+00  9.0
       24    2    1    2    0    0  9.01484917813E+01  8.51632432935E+01 -1.04926011801E+02  1.91057362410E+02  1.00567982975E+02  1.2707E-13  9.0
      -24    2    1    2    0    0 -9.01484917813E+01 -8.51632432935E+01  1.81501034861E+02  2.32179721928E+02  7.47346575551E+01  5.4263E-14  9.0
       -1    1    3    3    0  500  6.86007471766E+01  1.06676341732E+02 -9.67806323829E+01  1.59538068194E+02  0.00000000000E+00  0.0000E+00  9.0
        2    1    3    3  500    0  2.15477446047E+01 -2.15130984389E+01 -8.14537941857E+00  3.15192942158E+01  0.00000000000E+00  0.0000E+00  9.0
       13    1    4    4    0    0 -5.30996536391E+01 -4.21266658636E+01  3.76723068110E+01  7.75463929937E+01  1.05700000000E-01  0.0000E+00  9.0
      -14    1    4    4    0    0 -3.70488381422E+01 -4.30365774298E+01  1.43828728051E+02  1.54633328934E+02  0.00000000000E+00  0.0000E+00  9.0
</event>
<event>
 8    1   5.1859766E+00   4.6620000E+02  -1.0000000E+00   9.4270000E-02
       11   -1    0    0    0    0  0.00000000000E+00  0.00000000000E+00  2.23631301220E+02  2.23631301220E+02  0.00000000000E+00  0.0000E+00  9.0
      -11   -1    0    0    0    0  0.00000000000E+00  0.00000000000E+00 -2.43010997740E+02  2.43010997740E+02  0.00000000000E+00  0.0000E+00  9.0
       24    2    1    2    0    0 -1.92033246563E+01  6.78244285707E+01 -2.17027116077E+02  2.41691562935E+02  7.96562721489E+01  9.6572E-14  9.0
      -24    2    1    2    0    0  1.92033246563E+01 -6.78244285707E+01  1.97647419557E+02  2.24950736036E+02  8.10518994029E+01  5.6784E-14  9.0
       -1    1    3    3    0  500  2.65309202042E+01  2.53478808890E+00 -5.49422282667E+01  6.10652382658E+01  0.00000000000E+00  0.0000E+00  9.0
        2    1    3    3  500    0 -4.57342448605E+01  6.52896404818E+01 -1.62084887810E+02  1.80626324670E+02  0.00000000000E+00  0.0000E+00  9.0
        3    1    4    4  504    0  4.31763750155E+01 -7.10405468728E+01  1.56838775918E+02  1.77508761167E+02  0.00000000000E+00  0.0000E+00  9.0
       -4    1    4    4    0  504 -2.39730503593E+01  3.21611830206E+00  4.08086436386E+01  4.74419748691E+01  5.87386917370E-01  0.0000E+00  9.0
</event>
<event>
 8    1   5.1859766E+00   4.7560000E+02  -1.0000000E+00   9.4050000E-02
       11   -1    0    0    0    0  0.00000000000E+00  0.00000000000E+00  2.49976030880E+02  2.49976030880E+02  0.00000000000E+00  0.0000E+00  9.0
      -11   -1    0    0    0    0  0.00000000000E+00  0.00000000000E+00 -2.26225403580E+02  2.26225403580E+02  0.00000000000E+00  0.0000E+00  9.0
       24    2    1    2    0    0  2.74848996624E+01 -1.51439593796E+01 -2.10151317756E+02  2.27294015010E+02  8.07108028054E+01  4.1822E-14  9.0
      -24    2    1    2    0    0 -2.74848996624E+01  1.51439593796E+01  2.33901945066E+02  2.48907419450E+02  7.91203155747E+01  1.5114E-13  9.0
       -1    1    3    3    0  500  2.81575649624E+01  9.58475846503E+00 -1.97086034842E+02  1.99317889787E+02  0.00000000000E+00  0.0000E+00  9.0
        2    1    3    3  500    0 -6.72665299986E-01 -2.47287178447E+01 -1.30652829140E+01  2.79761252226E+01  0.00000000000E+00  0.0000E+00  9.0
        3    1    4    4  504    0 -2.04670329172E+01  4.46733140317E+01  1.84429866538E+02  1.90863773656E+02  0.00000000000E+00  0.0000E+00  9.0
       -4    1    4    4    0  504 -7.01786674523E+00 -2.95293546521E+01  4.94720785277E+01  5.80436457941E+01  5.87386917370E-01  0.0000E+00  9.0
</event>
<event>
 8    1   5.1859766E+00   4.7480000E+02  -1.0000000E+00   9.4070000E-02
       11   -1    0    0    0    0  0.00000000000E+00  0.00000000000E+00  2.27434950690E+02  2.27434950690E+02  0.00000000000E+00  0.0000E+00  9.0
      -11   -1    0    0    0    0  0.00000000000E+00  0.00000000000E+00 -2.47777417820E+02  2.47777417820E+02  0.00000000000E+00  0.0000E+00  9.0
       24    2    1    2    0    0 -1.52639079264E+00 -1.45136807812E+01 -2.33248075062E+02  2.47463280273E+02  8.13660479850E+01  2.0556E-15  9.0
      -24    2    1    2    0    0  1.52639079264E+00  1.45136807812E+01  2.12905607922E+02  2.27749088238E+02  7.95479258681E+01  1.7552E-13  9.0
       -1    1    3    3    0  500 -4.10131852914E+01 -1.32835738643E+01 -1.17504968112E+02  1.25163701740E+02  0.00000000000E+00  0.0000E+00  9.0
        2    1    3    3  500    0  3.94867944988E+01 -1.23010691690E+00 -1.15743106951E+02  1.22299578533E+02  0.00000000000E+00  0.0000E+00  9.0
        1    1    4    4  504    0 -3.65656631122E+01 -6.83393829693E+00  9.60989364936E+01  1.03047348470E+02  0.00000000000E+00  0.0000E+00  9.0
       -2    1    4    4    0  504  3.80920539048E+01  2.13476190782E+01  1.16806671429E+02  1.24701739768E+02  0.00000000000E+00  0.0000E+00  9.0
</event>
<event>
 8    1   5.1859766E+00   2.8220000E+02  -1.0000000E+00   1.0030000E-01
       11   -1    0    0    0    0  0.00000000000E+00  0.00000000000E+00  2.49397884220E+02  2.49397884220E+02  0.00000000000E+00  0.0000E+00  9.0
      -11   -1    0    0    0    0  0.00000000000E+00  0.00000000000E+00 -7.98162107430E+01  7.98162107430E+01  0.00000000000E+00  0.0000E+00  9.0
       24    2    1    2    0    0 -6.81122387429E+01  2.02194924860E+01 -1.48013524874E+01  1.05213318923E+02  7.61751764059E+01  2.1920E-13  9.0
      -24    2    1    2    0    0  6.81122387429E+01 -2.02194924860E+01  1.84383025970E+02  2.24000776045E+02  1.05504229584E+02  1.2660E-14  9.0
       -1    1    3    3    0  500 -6.55997919959E+01  2.99088816633E+00  1.79889515966E+01  6.80873005888E+01  0.00000000000E+00  0.0000E+00  9.0
        2    1    3    3  500    0 -2.51244674703E+00  1.72286043197E+01 -3.27903040840E+01  3.71260183346E+01  0.00000000000E+00  0.0000E+00  9.0
        1    1    4    4  504    0  4.98292604720E+01  3.73572239872E+01  6.39405555548E+01  8.92575600600E+01  0.00000000000E+00  0.0000E+00  9.0
       -2    1    4    4    0  504  1.82829782710E+01 -5.75767164732E+01  1.20442470416E+02  1.34743215985E+02  0.00000000000E+00  0.0000E+00  9.0
</event>
<event>
 8    1   5.1859766E+00   5.0000000E+02  -1.0000000E+00   9.3490000E-02
       11   -1    0    0    0    0  0.00000000000E+00  0.00000000000E+00  2.49999995890E+02  2.49999995890E+02  0.00000000000E+00  0.0000E+00  9.0
      -11   -1    0    0    0    0  0.00000000000E+00  0.00000000000E+00 -2.50000000000E+02  2.50000000000E+02  0.00000000000E+00  0.0000E+00  9.0
       24    2    1    2    0    0  1.62532234823E+01 -3.80785383883E+01 -2.32555546887E+02  2.50157614688E+02  8.23565871032E+01  1.1029E-14  9.0
      -24    2    1    2    0    0 -1.62532234823E+01  3.80785383883E+01  2.32555542777E+02  2.49842381203E+02  8.13940575817E+01  3.4805E-14  9.0
       -3    1    3    3    0  500 -8.94133348345E+00 -1.88260664175E+01 -2.10498046740E+02  2.11527293516E+02  0.00000000000E+00  0.0000E+00  9.0
        4    1    3    3  500    0  2.51945569658E+01 -1.92524719707E+01 -2.20575001470E+01  3.86303211715E+01  5.87386917370E-01  0.0000E+00  9.0
        3    1    4    4  504    0 -1.01661755753E+01  5.27644063030E+01  2.26554650041E+02  2.32839951798E+02  0.00000000000E+00  0.0000E+00  9.0
       -4    1    4    4    0  504 -6.08704790701E+00 -1.46858679148E+01  6.00089273558E+00  1.70024294043E+01  5.87386917370E-01  0.0000E+00  9.0
</event>
<event>
 8    1   5.1859766E+00   2.5280000E+02  -1.0000000E+00   1.0170000E-01
       11   -1    0    0    0    0  0.00000000000E+00  0.00000000000E+00  7.01515151570E+01  7.01515151570E+01  0.00000000000E+00  0.0000E+00  9.0
      -11   -1    0    0    0    0  0.00000000000E+00  0.00000000000E+00 -2.27699929970E+02  2.27699929970E+02  0.00000000000E+00  0.0000E+00  9.0
       24    2    1    2    0    0 -2.48801858781E+01  4.82918079957E+01 -1.74942038724E+02  1.99607275272E+02  7.92920239340E+01  8.1864E-14  9.0
      -24    2    1    2    0    0  2.48801858781E+01 -4.82918079957E+01  1.73936239141E+01  9.82441698528E+01  7.99891016850E+01  5.2122E-14  9.0
       -3    1    3    3    0  500 -6.52378374592E+00  4.77557635354E+01 -3.78368281606E+01  6.12764087595E+01  0.00000000000E+00  0.0000E+00  9.0
        4    1    3    3  500    0 -1.83564021322E+01  5.36044460300E-01 -1.37105210564E+02  1.38330866512E+02  5.87386917370E-01  0.0000E+00  9.0
        3    1    4    4  504    0  3.47553698008E+01  1.20513465125E+00  3.03218853951E+01  4.61389728259E+01  0.00000000000E+00  0.0000E+00  9.0
       -4    1    4    4    0  504 -9.87518392268E+00 -4.94969426469E+01 -1.29282614809E+01  5.21051970269E+01  5.87386917370E-01  0.0000E+00  9.0
</event>
<event>
 8    1   5.1859766E+00   4.9680000E+02  -1.0000000E+00   9.3560000E-02
       11   -1    0    0    0    0  0.00000000000E+00  0.00000000000E+00  2.49303467230E+02  2.49303467230E+02  0.00000000000E+00  0.0000E+00  9.0
      -11   -1    0    0    0    0  0.00000000000E+00  0.00000000000E+00 -2.47484072300E+02  2.47484072300E+02  0.00000000000E+00  0.0000E+00  9.0
       24    2    1    2    0    0  5.51193805504E+01  8.71378803329E+01 -2.10385156028E+02  2.47264045928E+02  7.90344116875E+01  4.5664E-14  9.0
      -24    2    1    2    0    0 -5.51193805504E+01 -8.71378803329E+01  2.12204550958E+02  2.49523493596E+02  8.12406678195E+01  7.7405E-14  9.0
       -1    1    3    3    0  500  4.47289703682E+01  9.32660704313E+01 -2.11204256351E+02  2.35173294795E+02  0.00000000000E+00  0.0000E+00  9.0
        2    1    3    3  500    0  1.03904101822E+01 -6.12819009839E+00  8.19100322878E-01  1.20907511337E+01  0.00000000000E+00  0.0000E+00  9.0
        3    1    4    4  504    0 -3.66754699118E+01  5.16653782158E+00  5.56231140530E+01  6.68259981091E+01  0.00000000000E+00  0.0000E+00  9.0
       -4    1    4    4    0  504 -1.84439106386E+01 -9.23044181545E+01  1.56581436905E+02  1.82697495487E+02  5.87386917370E-01  0.0000E+00  9.0
</event>
<event>
 8    1   5.1859766E+00   4.9150000E+02  -1.0000000E+00   9.3680000E-02
       11   -1    0    0    0    0  0.00000000000E+00  0.00000000000E+00  2.48546224530E+02  2.48546224530E+02  0.00000000000E+00  0.0000E+00  9.0
      -11   -1    0    0    0    0  0.00000000000E+00  0.00000000000E+00 -2.43023511050E+02  2.43023511050E+02  0.00000000000E+00  0.0000E+00  9.0
       24    2    1    2    0    0 -2.38611950500E+01 -2.26096025796E+01 -2.28416515493E+02  2.42067854229E+02  7.30902917158E+01  1.3150E-13  9.0
      -24    2    1    2    0    0  2.38611950500E+01  2.26096025796E+01  2.33939228983E+02  2.49501881357E+02  8.02687684322E+01  1.3912E-13  9.0
       -3    1    3    3    0  500  2.21849638537E+01 -3.91972631515E+00 -2.99717643445E+01  3.74945800549E+01  0.00000000000E+00  0.0000E+00  9.0
        4    1    3    3  500    0 -4.60461589036E+01 -1.86898762644E+01 -1.98444751148E+02  2.04573274174E+02  5.87386917370E-01  0.0000E+00  9.0
        3    1    4    4  504    0  3.48162123557E+00  4.60452869452E+01  7.92240085556E+01  9.16991475855E+01  0.00000000000E+00  0.0000E+00  9.0
       -4    1    4    4    0  504  2.03795738144E+01 -2.34356843656E+01  1.54715220427E+02  1.57802733771E+02  5.87386917370E-01  0.0000E+00  9.0
</event>
<event>
 8    1   5.1859766E+00   4.9460000E+02  -1.0000000E+00   9.3610000E-02
       11   -1    0    0    0    0  0.00000000000E+00  0.00000000000E+00  2.44644579160E+02  2.44644579160E+02  0.00000000000E+00  0.0000E+00  9.0
      -11   -1    0    0    0    0  0.00000000000E+00  0.00000000000E+00 -2.49999999840E+02  2.49999999840E+02  0.00000000000E+00  0.0000E+00  9.0
       24    2    1    2    0    0  1.72905576153E+01 -1.52609893734E+02 -1.76146619097E+02  2.50971316736E+02  9.14889466367E+01  2.1050E-13  9.0
      -24    2    1    2    0    0 -1.72905576153E+01  1.52609893734E+02  1.70791198417E+02  2.43673262260E+02  8.13528256165E+01  2.9079E-13  9.0
       -3    1    3    3    0  500  1.51480827118E+01 -5.25679905471E+01 -1.29470259499E+02  1.40553926074E+02  0.00000000000E+00  0.0000E+00  9.0
        4    1    3    3  500    0  2.14247490348E+00 -1.00041903186E+02 -4.66763595983E+01  1.10417390662E+02  5.87386917370E-01  0.0000E+00  9.0
        1    1    4    4  504    0 -3.80246555501E+01  4.86169780568E+01  3.35868747245E+01  7.02677958871E+01  0.00000000000E+00  0.0000E+00  9.0
       -2    1    4    4    0  504  2.07340979348E+01  1.03992915677E+02  1.37204323693E+02  1.73405466373E+02  0.00000000000E+00  0.0000E+00  9.0
</event>
<event>
 8    1   5.1859766E+00   4.4100000E+02  -1.0000000E+00   9.4900000E-02
       11   -1    0    0    0    0  0.00000000000E+00  0.00000000000E+00  1.97472222270E+02  1.97472222270E+02  0.00000000000E+00  0.0000E+00  9.0
      -11   -1    0    0    0    0  0.00000000000E+00  0.00000000000E+00 -2.46204619150E+02  2.46204619150E+02  0.00000000000E+00  0.0000E+00  9.0
       24    2    1    2    0    0  5.11959943646E+01 -9.70715811363E+00 -2.23667251609E+02  2.43880384452E+02  8.20691398811E+01  2.3281E-13  9.0
      -24    2    1    2    0    0 -5.11959943646E+01  9.70715811363E+00  1.74934854729E+02  1.99796456970E+02  8.12475357247E+01  2.8482E-13  9.0
      -13    1    3    3    0    0  1.82238459661E+01 -3.44830193405E+01 -4.08925407099E+01  5.65101605274E+01  1.05700000000E-01  0.0000E+00  9.0
       14    1    3    3    0    0  3.29721483985E+01  2.47758612269E+01 -1.82774710899E+02  1.87370223925E+02  0.00000000000E+00  0.0000E+00  9.0
        3    1    4    4  500    0 -5.18024742955E+01  2.69385095544E+01  6.05424900437E+01  8.41104793759E+01  0.00000000000E+00  0.0000E+00  9.0
       -4    1    4    4    0  500  6.06479930906E-01 -1.72313514407E+01  1.14392364685E+02  1.15685977594E+02  5.87386917370E-01  0.0000E+00  9.0
</event>
<event>
 8    1   5.1859766E+00   4.9860000E+02  -1.0000000E+00   9.3520000E-02
       11   -1    0    0    0    0  0.00000000000E+00  0.00000000000E+00  2.49999999850E+02  2.49999999850E+02  0.00000000000E+00  0.0000E+00  9.0
      -11   -1    0    0    0    0  0.00000000000E+00  0.00000000000E+00 -2.48559400350E+02  2.48559400350E+02  0.00000000000E+00  0.0000E+00  9.0
       24    2    1    2    0    0 -1.05101132777E+01  4.92638687246E+01 -2.34750759777E+02  2.53526008215E+02  8.14255880095E+01  2.7900E-13  9.0
      -24    2    1    2    0    0  1.05101132777E+01 -4.92638687246E+01  2.36191359287E+02  2.45033391985E+02  4.14441038421E+01  1.3040E-13  9.0
       -1    1    3    3    0  500  5.97122914230E-01  5.60591716513E+01 -7.70436356174E+01  9.52822600023E+01  0.00000000000E+00  0.0000E+00  9.0
        2    1    3    3  500    0 -1.11072361919E+01 -6.79530292671E+00 -1.57707124160E+02  1.58243748213E+02  0.00000000000E+00  0.0000E+00  9.0
        1    1    4    4  504    0  3.85615372798E-01 -2.22051647177E+01  3.28677675472E+01  3.96674700843E+01  0.00000000000E+00  0.0000E+00  9.0
       -2    1    4    4    0  504  1.01244979049E+01 -2.70587040069E+01  2.03323591740E+02  2.05365921901E+02  0.00000000000E+00  0.0000E+00  9.0
</event>
<event>
 8    1   5.1859766E+00   4.8460000E+02  -1.0000000E+00   9.3840000E-02
       11   -1    0    0    0    0  0.00000000000E+00  0.00000000000E+00  2.34801129010E+02  2.34801129010E+02  0.00000000000E+00  0.0000E+00  9.0
      -11   -1    0    0    0    0  0.00000000000E+00  0.00000000000E+00 -2.49998189350E+02  2.49998189350E+02  0.00000000000E+00  0.0000E+00  9.0
       24    2    1    2    0    0  1.23283906334E+02 -1.95728457850E+01 -1.99105133142E+02  2.48835475559E+02  8.18182253542E+01  3.9559E-13  9.0
      -24    2    1    2    0    0 -1.23283906334E+02  1.95728457850E+01  1.83908072812E+02  2.35963842800E+02  7.92132439092E+01  2.4454E-13  9.0
      -13    1    3    3    0    0  4.15474899269E+00  1.64421321923E+01 -4.01358881350E+00  1.74277284199E+01  1.05700000000E-01  0.0000E+00  9.0
       14    1    3    3    0    0  1.19129157341E+02 -3.60149779773E+01 -1.95091544329E+02  2.31407747139E+02  0.00000000000E+00  0.0000E+00  9.0
        1    1    4    4  500    0  5.66820459057E+00  1.47644503455E+01  3.81138089939E+01  4.12647546134E+01  0.00000000000E+00  0.0000E+00  9.0
       -2    1    4    4    0  500 -1.28952110924E+02  4.80839543949E+00  1.45794263818E+02  1.94699088187E+02  0.00000000000E+00  0.0000E+00  9.0
</event>
<event>
 8    1   5.1859766E+00   2.0120000E+02  -1.0000000E+00   1.0480000E-01
       11   -1    0    0    0    0  0.00000000000E+00  0.00000000000E+00  4.42684725100E+01  4.42684725100E+01  0.00000000000E+00  0.0000E+00  9.0
      -11   -1    0    0    0    0  0.00000000000E+00  0.00000000000E+00 -2.28698664510E+02  2.28698664510E+02  0.00000000000E+00  0.0000E+00  9.0
       24    2    1    2    0    0  2.18710811681E+01 -1.64512287191E+01 -1.64554770790E+02  1.85882366214E+02  8.20060629575E+01  6.1747E-14  9.0
      -24    2    1    2    0    0 -2.18710811681E+01  1.64512287191E+01 -1.98754212087E+01  8.70847708043E+01  8.02479770461E+01  1.0286E-13  9.0
       -3    1    3    3    0  500  2.13452080011E+01 -8.37088221653E+00 -1.87971662888E+00  2.30048453222E+01  0.00000000000E+00  0.0000E+00  9.0
        4    1    3    3  500    0  5.25873166975E-01 -8.08034650260E+00 -1.62675054161E+02  1.62877520892E+02  5.87386917370E-01  0.0000E+00  9.0
        1    1    4    4  504    0 -1.70180938268E+01  4.88244572067E+01 -1.59824376913E+01  5.41191412865E+01  0.00000000000E+00  0.0000E+00  9.0
       -2    1    4    4    0  504 -4.85298734125E+00 -3.23732284876E+01 -3.89298351737E+00  3.29656295179E+01  0.00000000000E+00  0.0000E+00  9.0
</event>
<event>
 8    1   5.1859766E+00   4.9840000E+02  -1.0000000E+00   9.3530000E-02
       11   -1    0    0    0    0  0.00000000000E+00  0.00000000000E+00  2.50000000000E+02  2.50000000000E+02  0.00000000000E+00  0.0000E+00  9.0
      -11   -1    0    0    0    0  0.00000000000E+00  0.00000000000E+00 -2.48420723410E+02  2.48420723410E+02  0.00000000000E+00  0.0000E+00  9.0
       24    2    1    2    0    0 -1.76378590781E+01  3.09057395465E+00 -2.34328747625E+02  2.48303596037E+02  8.01502845960E+01  2.3874E-15  9.0
      -24    2    1    2    0    0  1.76378590781E+01 -3.09057395465E+00  2.35908024215E+02  2.50117127378E+02  8.11500819377E+01  1.7588E-13  9.0
       -1    1    3    3    0  500 -6.53321331285E+00  2.48216737858E+00  5.07787596851E+00  8.63879942110E+00  0.00000000000E+00  0.0000E+00  9.0
        2    1    3    3  500    0 -1.11046457652E+01  6.08406576074E-01 -2.39406623594E+02  2.39664796616E+02  0.00000000000E+00  0.0000E+00  9.0
        1    1    4    4  504    0  3.01077103508E+01  1.81921448023E+01  2.14771463897E+02  2.17633200729E+02  0.00000000000E+00  0.0000E+00  9.0
       -2    1    4    4    0  504 -1.24698512728E+01 -2.12827187570E+01  2.11365603182E+01  3.24839266490E+01  0.00000000000E+00  0.0000E+00  9.0
</event>
<event>
 8    1   5.1859766E+00   5.0000000E+02  -1.0000000E+00   9.3490000E-02
       11   -1    0    0    0    0  0.00000000000E+00  0.00000000000E+00  2.49996993110E+02  2.49996993110E+02  0.00000000000E+00  0.0000E+00  9.0
      -11   -1    0    0    0    0  0.00000000000E+00  0.00000000000E+00 -2.49973340540E+02  2.49973340540E+02  0.00000000000E+00  0.0000E+00  9.0
       24    2    1    2    0    0 -2.66943873009E+00 -6.63675881812E+00 -2.36486936427E+02  2.50180838880E+02  8.13216365494E+01  3.8303E-14  9.0
      -24    2    1    2    0    0  2.66943873009E+00  6.63675881812E+00  2.36510588997E+02  2.49789494772E+02  8.00397433783E+01  4.1101E-14  9.0
       -3    1    3    3    0  500  1.35426114989E+01 -1.74310119857E+01 -2.27765169917E+02  2.28832286036E+02  0.00000000000E+00  0.0000E+00  9.0
        4    1    3    3  500    0 -1.62120502290E+01  1.07942531676E+01 -8.72176651005E+00  2.13485528437E+01  5.87386917370E-01  0.0000E+00  9.0
        3    1    4    4  504    0 -1.05614067510E+01  3.01727874785E+01  2.08289247478E+02  2.10728144850E+02  0.00000000000E+00  0.0000E+00  9.0
       -4    1    4    4    0  504  1.32308454811E+01 -2.35360286603E+01  2.82213415186E+01  3.90613499222E+01  5.87386917370E-01  0.0000E+00  9.0
</event>
<event>
 8    1   5.1859766E+00   4.2340000E+02  -1.0000000E+00   9.5370000E-02
       11   -1    0    0    0    0  0.00000000000E+00  0.00000000000E+00  1.79299839360E+02  1.79299839360E+02  0.00000000000E+00  0.0000E+00  9.0
      -11   -1    0    0    0    0  0.00000000000E+00  0.00000000000E+00 -2.49999985400E+02  2.49999985400E+02  0.00000000000E+00  0.0000E+00  9.0
       24    2    1    2    0    0 -5.03606089536E+01  4.36165644311E+01 -2.22079417651E+02  2.45164055481E+02  7.96715176736E+01  4.7013E-14  9.0
      -24    2    1    2    0    0  5.03606089536E+01 -4.36165644311E+01  1.51379271611E+02  1.84135769285E+02  8.09425847714E+01  2.9025E-13  9.0
       -1    1    3    3    0  500 -6.50544513925E+01  1.67675150293E+01 -1.86502779559E+02  1.98233493611E+02  0.00000000000E+00  0.0000E+00  9.0
        2    1    3    3  500    0  1.46938424389E+01  2.68490494018E+01 -3.55766380928E+01  4.69305618695E+01  0.00000000000E+00  0.0000E+00  9.0
        1    1    4    4  504    0  7.12737636650E+00  2.33098218103E+01  4.56065360006E+01  5.17117338007E+01  0.00000000000E+00  0.0000E+00  9.0
       -2    1    4    4    0  504  4.32332325871E+01 -6.69263862414E+01  1.05772735611E+02  1.32424035484E+02  0.00000000000E+00  0.0000E+00  9.0
</event>
<event>
 8    1   5.1859766E+00   4.9570000E+02  -1.0000000E+00   9.3590000E-02
       11   -1    0    0    0    0  0.00000000000E+00  0.00000000000E+00  2.49150956290E+02  2.49150956290E+02  0.00000000000E+00  0.0000E+00  9.0
      -11   -1    0    0    0    0  0.00000000000E+00  0.00000000000E+00 -2.46601972010E+02  2.46601972010E+02  0.00000000000E+00  0.0000E+00  9.0
       24    2    1    2    0    0 -5.74577785654E-01  1.28707844072E+01 -2.32403950819E+02  2.46700257376E+02  8.17522684832E+01  2.1061E-13  9.0
      -24    2    1    2    0    0  5.74577785654E-01 -1.28707844072E+01  2.34952935099E+02  2.49052670935E+02  8.15987987486E+01  4.4046E-14  9.0
       -3    1    3    3    0  500 -3.95457344087E+01  1.45043308210E+01 -1.44826251937E+02  1.50827331650E+02  0.00000000000E+00  0.0000E+00  9.0
        4    1    3    3  500    0  3.89711566230E+01 -1.63354641378E+00 -8.75776988825E+01  9.58729257265E+01  5.87386917370E-01  0.0000E+00  9.0
        1    1    4    4  504    0  4.05562594560E+01 -4.98080677134E+00  1.36906356889E+02  1.42873962547E+02  0.00000000000E+00  0.0000E+00  9.0
       -2    1    4    4    0  504 -3.99816816703E+01 -7.88997763586E+00  9.80465782097E+01  1.06178708388E+02  0.00000000000E+00  0.0000E+00  9.0
</event>
<event>
 8    1   5.1859766E+00   4.5530000E+02  -1.0000000E+00   9.4540000E-02
       11   -1    0    0    0    0  0.00000000000E+00  0.00000000000E+00  2.40657938830E+02  2.40657938830E+02  0.00000000000E+00  0.0000E+00  9.0
      -11   -1    0    0    0    0  0.00000000000E+00  0.00000000000E+00 -2.15389081390E+02  2.15389081390E+02  0.00000000000E+00  0.0000E+00  9.0
       24    2    1    2    0    0 -1.71373130843E+01 -1.83909242971E+02 -9.76928140851E+01  2.16498422160E+02  5.66690720221E+01  6.5629E-14  9.0
      -24    2    1    2    0    0  1.71373130843E+01  1.83909242971E+02  1.22961671527E+02  2.39548598065E+02  9.02643950855E+01  1.5014E-13  9.0
       -3    1    3    3    0  500 -3.40264038108E+01 -7.51337057036E+01 -5.06304468382E+01  9.67797088035E+01  0.00000000000E+00  0.0000E+00  9.0
        4    1    3    3  500    0  1.68890907266E+01 -1.08775537268E+02 -4.70623672468E+01  1.19718713356E+02  5.87386917370E-01  0.0000E+00  9.0
        1    1    4    4  504    0  3.05693131176E+01  1.97604819389E+01  4.50832034927E+00  3.66781202260E+01  0.00000000000E+00  0.0000E+00  9.0
       -2    1    4    4    0  504 -1.34320000334E+01  1.64148761032E+02  1.18453351178E+02  2.02870477839E+02  0.00000000000E+00  0.0000E+00  9.0
</event>
<event>
 8    1   5.1859766E+00   4.9680000E+02  -1.0000000E+00   9.3560000E-02
       11   -1    0    0    0    0  0.00000000000E+00  0.00000000000E+00  2.46859716460E+02  2.46859716460E+02  0.00000000000E+00  0.0000E+00  9.0
      -11   -1    0    0    0    0  0.00000000000E+00  0.00000000000E+00 -2.50000000000E+02  2.50000000000E+02  0.00000000000E+00  0.0000E+00  9.0
       24    2    1    2    0    0  3.20244037996E+01 -1.71923127661E+01 -2.33497993801E+02  2.49725611031E+02  8.07491773246E+01  7.9659E-15  9.0
      -24    2    1    2    0    0 -3.20244037996E+01  1.71923127661E+01  2.30357710261E+02  2.47134105420E+02  8.17890782909E+01  3.0377E-14  9.0
       -1    1    3    3    0  500  2.46768233666E+01 -1.55782273781E+01 -2.38765314000E+02  2.40542100159E+02  0.00000000000E+00  0.0000E+00  9.0
        2    1    3    3  500    0  7.34758043305E+00 -1.61408538803E+00  5.26732019827E+00  9.18351087172E+00  0.00000000000E+00  0.0000E+00  9.0
       13    1    4    4    0    0  1.64107869993E+01  1.92586118918E+01  2.30304687194E+01  3.42143496776E+01  1.05700000000E-01  0.0000E+00  9.0
      -14    1    4    4    0    0 -4.84351907989E+01 -2.06629912565E+00  2.07327241542E+02  2.12919755742E+02  0.00000000000E+00  0.0000E+00  9.0
</event>
<event>
 8    1   5.1859766E+00   4.9810000E+02  -1.0000000E+00   9.3530000E-02
       11   -1    0    0    0    0  0.00000000000E+00  0.00000000000E+00  2.49999999990E+02  2.49999999990E+02  0.00000000000E+00  0.0000E+00  9.0
      -11   -1    0    0    0    0  0.00000000000E+00  0.00000000000E+00 -2.48138486270E+02  2.48138486270E+02  0.00000000000E+00  0.0000E+00  9.0
       24    2    1    2    0    0  7.85306117326E+01  5.95932793664E+01 -2.13247985266E+02  2.48151516966E+02  7.99128039036E+01  7.7295E-14  9.0
      -24    2    1    2    0    0 -7.85306117326E+01 -5.95932793664E+01  2.15109498986E+02  2.49986969297E+02  8.06410090433E+01  8.5544E-14  9.0
       -3    1    3    3    0  500  8.74039114122E+01  4.15616377723E+01 -1.27466229244E+02  1.60045159446E+02  0.00000000000E+00  0.0000E+00  9.0
        4    1    3    3  500    0 -8.87329967962E+00  1.80316415941E+01 -8.57817560222E+01  8.81063575199E+01  5.87386917370E-01  0.0000E+00  9.0
        3    1    4    4  504    0 -2.84009243479E+01  1.66412285354E+01  8.43090113364E+01  9.05071952030E+01  0.00000000000E+00  0.0000E+00  9.0
       -4    1    4    4    0  504 -5.01296873847E+01 -7.62345079018E+01  1.30800487650E+02  1.59479774094E+02  5.87386917370E-01  0.0000E+00  9.0
</event>
<event>
 8    1   5.1859766E+00   4.9250000E+02  -1.0000000E+00   9.3660000E-02
       11   -1    0    0    0    0  0.00000000000E+00  0.00000000000E+00  2.49999991300E+02  2.49999991300E+02  0.00000000000E+00  0.0000E+00  9.0
      -11   -1    0    0    0    0  0.00000000000E+00  0.00000000000E+00 -2.42520234530E+02  2.42520234530E+02  0.00000000000E+00  0.0000E+00  9.0
       24    2    1    2    0    0  2.12987015793E+01 -8.79710820835E+01 -2.09388618825E+02  2.43474642611E+02  8.51102927330E+01  1.2133E-13  9.0
      -24    2    1    2    0    0 -2.12987015793E+01  8.79710820835E+01  2.16868375605E+02  2.49045583220E+02  8.24576510209E+01  3.4534E-13  9.0
       -3    1    3    3    0  500 -2.15631292504E+01 -6.23657193256E+01 -7.38773719289E+01  9.90571429690E+01  0.00000000000E+00  0.0000E+00  9.0
        4    1    3    3  500    0  4.28618308297E+01 -2.56053627579E+01 -1.35511246896E+02  1.44417499642E+02  5.87386917370E-01  0.0000E+00  9.0
       13    1    4    4    0    0 -3.91718170167E+01  7.48135465805E+01  1.03768436829E+02  1.33788630514E+02  1.05700000000E-01  0.0000E+00  9.0
      -14    1    4    4    0    0  1.78731154374E+01  1.31575355029E+01  1.13099938776E+02  1.15256952706E+02  0.00000000000E+00  0.0000E+00  9.0
</event>
<event>
 8    1   5.1859766E+00   4.8270000E+02  -1.0000000E+00   9.3880000E-02
       11   -1    0    0    0    0  0.00000000000E+00  0.00000000000E+00  2.33032482050E+02  2.33032482050E+02  0.00000000000E+00  0.0000E+00  9.0
      -11   -1    0    0    0    0  0.00000000000E+00  0.00000000000E+00 -2.50000000000E+02  2.50000000000E+02  0.00000000000E+00  0.0000E+00  9.0
       24    2    1    2    0    0 -1.04458604507E+01  1.75180811803E+02 -1.53624160505E+02  2.46849895856E+02  8.08520597670E+01  3.0288E-14  9.0
      -24    2    1    2    0    0  1.04458604507E+01 -1.75180811803E+02  1.36656642555E+02  2.36182586189E+02  7.94338922608E+01  9.2093E-14  9.0
       -1    1    3    3    0  500 -8.10971153235E+00 -3.48708280293E+00 -2.54824458809E+01  2.69681704178E+01  0.00000000000E+00  0.0000E+00  9.0
        2    1    3    3  500    0 -2.33614891838E+00  1.78667894606E+02 -1.28141714624E+02  2.19881725438E+02  0.00000000000E+00  0.0000E+00  9.0
        3    1    4    4  504    0 -1.14818289065E+01 -1.06982200016E+02  3.76874620977E+01  1.14006001222E+02  0.00000000000E+00  0.0000E+00  9.0
       -4    1    4    4    0  504  2.19276893572E+01 -6.81986117874E+01  9.89691804574E+01  1.22176584967E+02  5.87386917370E-01  0.0000E+00  9.0
</event>
<event>
 8    1   5.1859766E+00   4.9130000E+02  -1.0000000E+00   9.3690000E-02
       11   -1    0    0    0    0  0.00000000000E+00  0.00000000000E+00  2.44185027400E+02  2.44185027400E+02  0.00000000000E+00  0.0000E+00  9.0
      -11   -1    0    0    0    0  0.00000000000E+00  0.00000000000E+00 -2.47106876900E+02  2.47106876900E+02  0.00000000000E+00  0.0000E+00  9.0
       24    2    1    2    0    0 -1.84377857207E+01  7.81199447398E+00 -2.33030891019E+02  2.47488843799E+02  8.09095324190E+01  1.2286E-14  9.0
      -24    2    1    2    0    0  1.84377857207E+01 -7.81199447398E+00  2.30109041529E+02  2.43803060497E+02  7.80306485575E+01  5.7606E-14  9.0
       -3    1    3    3    0  500 -3.81929979428E+01 -2.39407320379E+01 -1.44921629861E+02  1.51770031771E+02  0.00000000000E+00  0.0000E+00  9.0
        4    1    3    3  500    0  1.97552122222E+01  3.17527265118E+01 -8.81092611578E+01  9.57188120280E+01  5.87386917370E-01  0.0000E+00  9.0
        3    1    4    4  504    0  3.40893511808E+01  2.56976661636E+01  1.41025961351E+02  1.47345769146E+02  0.00000000000E+00  0.0000E+00  9.0
       -4    1    4    4    0  504 -1.56515654601E+01 -3.35096606376E+01  8.90830801778E+01  9.64572913509E+01  5.87386917370E-01  0.0000E+00  9.0
</event>
<event>
 8    1   5.1859766E+00   4.7570000E+02  -1.0000000E+00   9.4050000E-02
       11   -1    0    0    0    0  0.00000000000E+00  0.00000000000E+00  2.28803774900E+02  2.28803774900E+02  0.00000000000E+00  0.0000E+00  9.0
      -11   -1    0    0    0    0  0.00000000000E+00  0.00000000000E+00 -2.47226174900E+02  2.47226174900E+02  0.00000000000E+00  0.0000E+00  9.0
       24    2    1    2    0    0  1.80860583213E+01 -6.38929648147E+01 -2.23110860853E+02  2.46709523516E+02  8.17172950164E+01  1.0086E-13  9.0
      -24    2    1    2    0    0 -1.80860583213E+01  6.38929648147E+01  2.04688460853E+02  2.29320426285E+02  7.92532361922E+01  1.2741E-13  9.0
       -1    1    3    3    0  500 -2.12786582334E+01 -3.18002880524E+01 -3.49761762799E+01  5.18398738771E+01  0.00000000000E+00  0.0000E+00  9.0
        2    1    3    3  500    0  3.93647165548E+01 -3.20926767623E+01 -1.88134684573E+02  1.94869649639E+02  0.00000000000E+00  0.0000E+00  9.0
        1    1    4    4  504    0 -3.08557400930E+00 -1.58295247149E+01  7.21211968818E+01  7.39023792536E+01  0.00000000000E+00  0.0000E+00  9.0
       -2    1    4    4    0  504 -1.50004843120E+01  7.97224895296E+01  1.32567263971E+02  1.55418047031E+02  0.00000000000E+00  0.0000E+00  9.0
</event>
<event>
 8    1   5.1859766E+00   4.9840000E+02  -1.0000000E+00   9.3530000E-02
       11   -1    0    0    0    0  0.00000000000E+00  0.00000000000E+00  2.48360515540E+02  2.48360515540E+02  0.00000000000E+00  0.0000E+00  9.0
      -11   -1    0    0    0    0  0.00000000000E+00  0.00000000000E+00 -2.50000000000E+02  2.50000000000E+02  0.00000000000E+00  0.0000E+00  9.0
       24    2    1    2    0    0 -1.57756568088E+02 -6.09102406477E+01 -1.65855966897E+02  2.49218732312E+02  7.74892417656E+01  1.8969E-13  9.0
      -24    2    1    2    0    0  1.57756568088E+02  6.09102406477E+01  1.64216482427E+02  2.49141783224E+02  8.06683510230E+01  3.8083E-14  9.0
       -3    1    3    3    0  500 -7.50788261243E+01 -3.87010370959E+01 -3.19961020466E+01  9.03235902225E+01  0.00000000000E+00  0.0000E+00  9.0
        4    1    3    3  500    0 -8.26777419633E+01 -2.22092035518E+01 -1.33859864850E+02  1.58895142090E+02  5.87386917370E-01  0.0000E+00  9.0
        3    1    4    4  504    0  4.19014932902E+01 -1.59414223879E+01  2.08768214728E+01  4.94540773092E+01  0.00000000000E+00  0.0000E+00  9.0
       -4    1    4    4    0  504  1.15855074797E+02  7.68516630356E+01  1.43339660954E+02  1.99687705915E+02  5.87386917370E-01  0.0000E+00  9.0
</event>
<event>
 8    1   5.1859766E+00   3.8450000E+02  -1.0000000E+00   9.6490000E-02
       11   -1    0    0    0    0  0.00000000000E+00  0.00000000000E+00  1.47823204190E+02  1.47823204190E+02  0.00000000000E+00  0.0000E+00  9.0
      -11   -1    0    0    0    0  0.00000000000E+00  0.00000000000E+00 -2.49995707390E+02  2.49995707390E+02  0.00000000000E+00  0.0000E+00  9.0
       24    2    1    2    0    0  5.05514322920E+01  1.29282777784E+02 -1.62498356535E+02  2.28616906898E+02  8.11818348192E+01  2.9528E-15  9.0
      -24    2    1    2    0    0 -5.05514322920E+01 -1.29282777784E+02  6.03258533233E+01  1.69202004686E+02  7.56348191785E+01  5.8460E-14  9.0
       -1    1    3    3    0  500  6.13962380681E+01  4.57638553860E+01 -7.58455865579E+01  1.07779318559E+02  0.00000000000E+00  0.0000E+00  9.0
        2    1    3    3  500    0 -1.08448057761E+01  8.35189223984E+01 -8.66527699773E+01  1.20837588339E+02  0.00000000000E+00  0.0000E+00  9.0
        1    1    4    4  504    0  6.27981137255E+00 -4.59824618929E+00  2.71138603553E+01  2.82088872921E+01  0.00000000000E+00  0.0000E+00  9.0
       -2    1    4    4    0  504 -5.68312436646E+01 -1.24684531595E+02  3.32119929680E+01  1.40993117394E+02  0.00000000000E+00  0.0000E+00  9.0
</event>
<event>
 8    1   5.1859766E+00   4.6590000E+02  -1.0000000E+00   9.4280000E-02
       11   -1    0    0    0    0  0.00000000000E+00  0.00000000000E+00  2.43187045460E+02  2.43187045460E+02  0.00000000000E+00  0.0000E+00  9.0
      -11   -1    0    0    0    0  0.00000000000E+00  0.00000000000E+00 -2.23138826330E+02  2.23138826330E+02  0.00000000000E+00  0.0000E+00  9.0
       24    2    1    2    0    0  1.02236838509E+02 -9.25208668360E+01 -1.58519556858E+02  2.26015571323E+02  8.33193052410E+01  2.4520E-13  9.0
      -24    2    1    2    0    0 -1.02236838509E+02  9.25208668360E+01  1.78567775988E+02  2.40310300467E+02  8.27653788789E+01  5.7952E-14  9.0
      -13    1    3    3    0    0  4.77107178378E+01 -3.39414991228E+01 -1.30551713415E+01  5.99898877357E+01  1.05700000000E-01  0.0000E+00  9.0
       14    1    3    3    0    0  5.45261206716E+01 -5.85793677132E+01 -1.45464385516E+02  1.66025683588E+02  0.00000000000E+00  0.0000E+00  9.0
        3    1    4    4  500    0  4.84593648972E+00 -1.01456414472E+01  6.00634445778E+00  1.27472865576E+01  0.00000000000E+00  0.0000E+00  9.0
       -4    1    4    4    0  500 -1.07082774999E+02  1.02666508283E+02  1.72561431530E+02  2.27563013910E+02  5.87386917370E-01  0.0000E+00  9.0
</event>
<event>
 8    1   5.1859766E+00   4.9670000E+02  -1.0000000E+00   9.3560000E-02
       11   -1    0    0    0    0  0.00000000000E+00  0.00000000000E+00  2.49788822710E+02  2.49788822710E+02  0.00000000000E+00  0.0000E+00  9.0
      -11   -1    0    0    0    0  0.00000000000E+00  0.00000000000E+00 -2.46915752840E+02  2.46915752840E+02  0.00000000000E+00  0.0000E+00  9.0
       24    2    1    2    0    0 -1.38486502182E+01  8.86319795950E+00 -2.30202920523E+02  2.44005689386E+02  7.92152159905E+01  1.0475E-13  9.0
      -24    2    1    2    0    0  1.38486502182E+01 -8.86319795950E+00  2.33075990393E+02  2.52698886158E+02  9.62391208222E+01  7.0141E-14  9.0
       -3    1    3    3    0  500 -2.23897762044E+01 -6.18822628254E+00 -1.40237880894E+01  2.71341639890E+01  0.00000000000E+00  0.0000E+00  9.0
        4    1    3    3  500    0  8.54112598622E+00  1.50514242420E+01 -2.16179132434E+02  2.16871525397E+02  5.87386917370E-01  0.0000E+00  9.0
        3    1    4    4  504    0 -7.19081178839E+00 -9.91306895602E+00  2.31219339156E+02  2.31543428993E+02  0.00000000000E+00  0.0000E+00  9.0
       -4    1    4    4    0  504  2.10394620065E+01  1.04987099651E+00  1.85665123755E+00  2.11554571646E+01  5.87386917370E-01  0.0000E+00  9.0
</event>
<event>
 8    1   5.1859766E+00   4.7350000E+02  -1.0000000E+00   9.4100000E-02
       11   -1    0    0    0    0  0.00000000000E+00  0.00000000000E+00  2.24247353920E+02  2.24247353920E+02  0.00000000000E+00  0.0000E+00  9.0
      -11   -1    0    0    0    0  0.00000000000E+00  0.00000000000E+00 -2.49996529860E+02  2.49996529860E+02  0.00000000000E+00  0.0000E+00  9.0
       24    2    1    2    0    0  4.33796501392E+01 -4.01043868790E+01 -2.30492544466E+02  2.51527751401E+02  8.15428769246E+01  6.1369E-13  9.0
      -24    2    1    2    0    0 -4.33796501392E+01  4.01043868790E+01  2.04743368526E+02  2.22716132381E+02  6.47493071335E+01  1.8097E-13  9.0
       -1    1    3    3    0  500 -1.64566864105E+01 -2.20119440709E+00 -1.13917446371E+02  1.15121033578E+02  0.00000000000E+00  0.0000E+00  9.0
        2    1    3    3  500    0  5.98363365497E+01 -3.79031924719E+01 -1.16575098095E+02  1.36406717823E+02  0.00000000000E+00  0.0000E+00  9.0
        1    1    4    4  504    0 -3.05815915740E+00  1.50861983299E+01  1.47770442827E+02  1.48570015450E+02  0.00000000000E+00  0.0000E+00  9.0
       -2    1    4    4    0  504 -4.03214909818E+01  2.50181885491E+01  5.69729256989E+01  7.41461169311E+01  0.00000000000E+00  0.0000E+00  9.0
</event>
<event>
 8    1   5.1859766E+00   4.6330000E+02  -1.0000000E+00   9.4340000E-02
       11   -1    0    0    0    0  0.00000000000E+00  0.00000000000E+00  2.39577723390E+02  2.39577723390E+02  0.00000000000E+00  0.0000E+00  9.0
      -11   -1    0    0    0    0  0.00000000000E+00  0.00000000000E+00 -2.23997501110E+02  2.23997501110E+02  0.00000000000E+00  0.0000E+00  9.0
       24    2    1    2    0    0 -2.13360049610E+02  5.35293537346E+01 -5.49349060220E+00  2.34276775109E+02  8.04209328204E+01  2.0968E-13  9.0
      -24    2    1    2    0    0  2.13360049610E+02 -5.35293537346E+01  2.10737128823E+01  2.29298449399E+02  6.12027372041E+01  1.3874E-13  9.0
       -3    1    3    3    0  500 -1.24724624360E+02  6.84761616378E+01 -1.83840219325E+01  1.43468424738E+02  0.00000000000E+00  0.0000E+00  9.0
        4    1    3    3  500    0 -8.86354252503E+01 -1.49468079032E+01  1.28905313303E+01  9.08083503713E+01  5.87386917370E-01  0.0000E+00  9.0
        1    1    4    4  504    0  7.52814477152E+00 -7.51026671469E+00 -1.17485134758E+01  1.58462815423E+01  0.00000000000E+00  0.0000E+00  9.0
       -2    1    4    4    0  504  2.05831904838E+02 -4.60190870199E+01  3.28222263581E+01  2.13452167857E+02  0.00000000000E+00  0.0000E+00  9.0
</event>
<event>
 8    1   5.1859766E+00   5.0000000E+02  -1.0000000E+00   9.3490000E-02
       11   -1    0    0    0    0  0.00000000000E+00  0.00000000000E+00  2.49995721540E+02  2.49995721540E+02  0.00000000000E+00  0.0000E+00  9.0
      -11   -1    0    0    0    0  0.00000000000E+00  0.00000000000E+00 -2.50000000000E+02  2.50000000000E+02  0.00000000000E+00  0.0000E+00  9.0
       24    2    1    2    0    0 -1.11720301998E+02  8.18272170216E+01 -1.92304683186E+02  2.49812490765E+02  7.90447344393E+01  1.0259E-13  9.0
      -24    2    1    2    0    0  1.11720301998E+02 -8.18272170216E+01  1.92300404726E+02  2.50183230781E+02  8.02189751995E+01  3.2547E-13  9.0
       -3    1    3    3    0  500  1.07848458000E+01  1.76743839494E+01 -3.18585670592E+01  3.79955924021E+01  0.00000000000E+00  0.0000E+00  9.0
        4    1    3    3  500    0 -1.22505147798E+02  6.41528330722E+01 -1.60446116127E+02  2.11816898363E+02  5.87386917370E-01  0.0000E+00  9.0
        1    1    4    4  504    0  9.11764897266E+01 -5.21889526244E+01  1.85937592172E+02  2.13564105686E+02  0.00000000000E+00  0.0000E+00  9.0
       -2    1    4    4    0  504  2.05438122716E+01 -2.96382643972E+01  6.36281255495E+00  3.66191250952E+01  0.00000000000E+00  0.0000E+00  9.0
</event>
<event>
 8    1   5.1859766E+00   5.0000000E+02  -1.0000000E+00   9.3490000E-02
       11   -1    0    0    0    0  0.00000000000E+00  0.00000000000E+00  2.49999999920E+02  2.49999999920E+02  0.00000000000E+00  0.0000E+00  9.0
      -11   -1    0    0    0    0  0.00000000000E+00  0.00000000000E+00 -2.50000000000E+02  2.50000000000E+02  0.00000000000E+00  0.0000E+00  9.0
       24    2    1    2    0    0 -1.02470464045E+01  1.60149816608E+01 -2.36350344745E+02  2.50099394453E+02  7.95408074329E+01  6.8792E-14  9.0
      -24    2    1    2    0    0  1.02470464045E+01 -1.60149816608E+01  2.36350344665E+02  2.49900605461E+02  7.89135323569E+01  2.8094E-13  9.0
       -3    1    3    3    0  500 -7.86042055791E+00  4.61183934492E+01 -1.82039909738E+02  1.87955370136E+02  0.00000000000E+00  0.0000E+00  9.0
        4    1    3    3  500    0 -2.38662584659E+00 -3.01034117884E+01 -5.43104350073E+01  6.21440243169E+01  5.87386917370E-01  0.0000E+00  9.0
        3    1    4    4  504    0  2.93919163539E+01  2.31856129708E+01  1.02811721584E+02  1.09415298249E+02  0.00000000000E+00  0.0000E+00  9.0
       -4    1    4    4    0  504 -1.91448699494E+01 -3.92005946317E+01  1.33538623081E+02  1.40485307212E+02  5.87386917370E-01  0.0000E+00  9.0
</event>
<event>
 8    1   5.1859766E+00   4.9940000E+02  -1.0000000E+00   9.3500000E-02
       11   -1    0    0    0    0  0.00000000000E+00  0.00000000000E+00  2.49379610210E+02  2.49379610210E+02  0.00000000000E+00  0.0000E+00  9.0
      -11   -1    0    0    0    0  0.00000000000E+00  0.00000000000E+00 -2.50000000000E+02  2.50000000000E+02  0.00000000000E+00  0.0000E+00  9.0
       24    2    1    2    0    0  5.55796546667E+01  2.61351221094E+01 -2.29390132282E+02  2.49678566076E+02  7.71194589503E+01  5.4521E-14  9.0
      -24    2    1    2    0    0 -5.55796546667E+01 -2.61351221094E+01  2.28769742492E+02  2.49701044125E+02  7.90118582029E+01  1.0304E-14  9.0
       -3    1    3    3    0  500  7.97511070277E+00  4.59814267383E+01 -1.19357750785E+02  1.28156805001E+02  0.00000000000E+00  0.0000E+00  9.0
        4    1    3    3  500    0  4.76045439639E+01 -1.98463046289E+01 -1.10032381497E+02  1.21521761075E+02  5.87386917370E-01  0.0000E+00  9.0
        3    1    4    4  504    0  8.20206403338E+00  4.28834552014E+00  1.17649304916E+02  1.18012807393E+02  0.00000000000E+00  0.0000E+00  9.0
       -4    1    4    4    0  504 -6.37817187001E+01 -3.04234676295E+01  1.11120437576E+02  1.31688236732E+02  5.87386917370E-01  0.0000E+00  9.0
</event>
<event>
 8    1   5.1859766E+00   4.8620000E+02  -1.0000000E+00   9.3800000E-02
       11   -1    0    0    0    0  0.00000000000E+00  0.00000000000E+00  2.49999991470E+02  2.49999991470E+02  0.00000000000E+00  0.0000E+00  9.0
      -11   -1    0    0    0    0  0.00000000000E+00  0.00000000000E+00 -2.36396826390E+02  2.36396826390E+02  0.00000000000E+00  0.0000E+00  9.0
       24    2    1    2    0    0 -2.26589130391E+01 -8.22644172305E+00 -2.24525093058E+02  2.39748939907E+02  8.05415178045E+01  1.5543E-14  9.0
      -24    2    1    2    0    0  2.26589130391E+01  8.22644172305E+00  2.38128258138E+02  2.46647877952E+02  5.95735485827E+01  2.5032E-13  9.0
      -13    1    3    3    0    0 -7.68251272594E+00 -4.41991743932E+01 -1.29214350370E+02  1.36780654819E+02  1.05700000000E-01  0.0000E+00  9.0
       14    1    3    3    0    0 -1.49764003131E+01  3.59727326702E+01 -9.53107426884E+01  1.02968285088E+02  0.00000000000E+00  0.0000E+00  9.0
        3    1    4    4  500    0  2.60821968754E+01  9.93041286121E+00  4.16763146304E+01  5.01578437995E+01  0.00000000000E+00  0.0000E+00  9.0
       -4    1    4    4    0  500 -3.42328383632E+00 -1.70397113816E+00  1.96451943508E+02  1.96490034152E+02  5.87386917370E-01  0.0000E+00  9.0
</event>
<event>
 8    1   5.1859766E+00   2.9850000E+02  -1.0000000E+00   9.9570000E-02
       11   -1    0    0    0    0  0.00000000000E+00  0.00000000000E+00  1.75387238200E+02  1.75387238200E+02  0.00000000000E+00  0.0000E+00  9.0
      -11   -1    0    0    0    0  0.00000000000E+00  0.00000000000E+00 -1.27044769380E+02  1.27044769380E+02  0.00000000000E+00  0.0000E+00  9.0
       24    2    1    2    0    0 -9.92869231899E-01  1.08815767835E+02 -2.88627580419E+01  1.45247122728E+02  9.17704241029E+01  5.9139E-14  9.0
      -24    2    1    2    0    0  9.92869231899E-01 -1.08815767835E+02  7.72052268599E+01  1.57184884846E+02  8.30938255867E+01  2.8932E-13  9.0
       -3    1    3    3    0  500  9.39068675753E+00 -6.54691728280E+00 -2.70829162120E+01  2.94029160838E+01  0.00000000000E+00  0.0000E+00  9.0
        4    1    3    3  500    0 -1.03835559894E+01  1.15362685118E+02 -1.77984182990E+00  1.15844206644E+02  5.87386917370E-01  0.0000E+00  9.0
        1    1    4    4  504    0 -3.53610972431E+00 -1.22091495994E+02  6.38847342215E+01  1.37840838406E+02  0.00000000000E+00  0.0000E+00  9.0
       -2    1    4    4    0  504  4.52897895621E+00  1.32757281586E+01  1.33204926384E+01  1.93440464395E+01  0.00000000000E+00  0.0000E+00  9.0
</event>
<event>
 8    1   5.1859766E+00   5.0000000E+02  -1.0000000E+00   9.3490000E-02
       11   -1    0    0    0    0  0.00000000000E+00  0.00000000000E+00  2.50000000000E+02  2.50000000000E+02  0.00000000000E+00  0.0000E+00  9.0
      -11   -1    0    0    0    0  0.00000000000E+00  0.00000000000E+00 -2.50000000000E+02  2.50000000000E+02  0.00000000000E+00  0.0000E+00  9.0
       24    2    1    2    0    0  8.20028861787E+00  2.52426604257E+01 -2.34644957913E+02  2.49736844362E+02  8.12760636293E+01  3.5024E-14  9.0
      -24    2    1    2    0    0 -8.20028861787E+00 -2.52426604257E+01  2.34644957913E+02  2.50263155634E+02  8.28791539226E+01  9.4308E-14  9.0
      -13    1    3    3    0    0  9.13130989529E+00  5.12645608626E+01 -1.01586669835E+02  1.14154713795E+02  1.05700000000E-01  0.0000E+00  9.0
       14    1    3    3    0    0 -9.31021277417E-01 -2.60219004369E+01 -1.33058288078E+02  1.35582130567E+02  0.00000000000E+00  0.0000E+00  9.0
        1    1    4    4  500    0  2.43207563555E+01  1.34020416440E+01  1.42529539214E+02  1.45209446864E+02  0.00000000000E+00  0.0000E+00  9.0
       -2    1    4    4    0  500 -3.25210449733E+01 -3.86447020697E+01  9.21154186994E+01  1.05053708770E+02  0.00000000000E+00  0.0000E+00  9.0
</event>
<event>
 8    1   5.1859766E+00   4.9940000E+02  -1.0000000E+00   9.3500000E-02
       11   -1    0    0    0    0  0.00000000000E+00  0.00000000000E+00  2.49412812150E+02  2.49412812150E+02  0.00000000000E+00  0.0000E+00  9.0
      -11   -1    0    0    0    0  0.00000000000E+00  0.00000000000E+00 -2.49999560830E+02  2.49999560830E+02  0.00000000000E+00  0.0000E+00  9.0
       24    2    1    2    0    0 -1.62110327677E+01  5.39184916081E+01 -2.29943857159E+02  2.49948030634E+02  8.01862784543E+01  8.0093E-14  9.0
      -24    2    1    2    0    0  1.62110327677E+01 -5.39184916081E+01  2.29357108479E+02  2.49464342356E+02  8.03602736225E+01  2.6883E-14  9.0
       -3    1    3    3    0  500  9.38183444586E-01  7.22273188482E+01 -1.57297417194E+02  1.73089985938E+02  0.00000000000E+00  0.0000E+00  9.0
        4    1    3    3  500    0 -1.71492162123E+01 -1.83088272401E+01 -7.26464399646E+01  7.68580446962E+01  5.87386917370E-01  0.0000E+00  9.0
       13    1    4    4    0    0  3.88141234650E+01 -5.49192471338E+00  1.39624164889E+02  1.45022812036E+02  1.05700000000E-01  0.0000E+00  9.0
      -14    1    4    4    0    0 -2.26030906973E+01 -4.84265668948E+01  8.97329435898E+01  1.04441530320E+02  0.00000000000E+00  0.0000E+00  9.0
</event>
<event>
 8    1   5.1859766E+00   4.8460000E+02  -1.0000000E+00   9.3840000E-02
       11   -1    0    0    0    0  0.00000000000E+00  0.00000000000E+00  2.49987885610E+02  2.49987885610E+02  0.00000000000E+00  0.0000E+00  9.0
      -11   -1    0    0    0    0  0.00000000000E+00  0.00000000000E+00 -2.34852156940E+02  2.34852156940E+02  0.00000000000E+00  0.0000E+00  9.0
       24    2    1    2    0    0 -8.84120177691E+01  7.07561221904E+01 -1.91194409244E+02  2.36374137331E+02  8.05873250549E+01  1.2238E-13  9.0
      -24    2    1    2    0    0  8.84120177691E+01 -7.07561221904E+01  2.06330137904E+02  2.48465905226E+02  7.96245347800E+01  8.1035E-14  9.0
       -1    1    3    3    0  500 -4.01029955280E+01 -1.28396945142E+01 -6.57086933349E+01  7.80431956375E+01  0.00000000000E+00  0.0000E+00  9.0
        2    1    3    3  500    0 -4.83090222411E+01  8.35958167046E+01 -1.25485715909E+02  1.58330941694E+02  0.00000000000E+00  0.0000E+00  9.0
        1    1    4    4  504    0  8.32526242610E+01 -1.79703268815E+01  1.20204871737E+02  1.47319867241E+02  0.00000000000E+00  0.0000E+00  9.0
       -2    1    4    4    0  504  5.15939350810E+00 -5.27857953089E+01  8.61252661674E+01  1.01146037986E+02  0.00000000000E+00  0.0000E+00  9.0
</event>
<event>
 8    1   5.1859766E+00   5.0000000E+02  -1.0000000E+00   9.3490000E-02
       11   -1    0    0    0    0  0.00000000000E+00  0.00000000000E+00  2.50000000000E+02  2.50000000000E+02  0.00000000000E+00  0.0000E+00  9.0
      -11   -1    0    0    0    0  0.00000000000E+00  0.00000000000E+00 -2.50000000000E+02  2.50000000000E+02  0.00000000000E+00  0.0000E+00  9.0
       24    2    1    2    0    0 -1.09656656040E+02 -1.82671693203E+02 -1.04714743590E+02  2.49794740425E+02  7.77091056914E+01  2.3241E-13  9.0
      -24    2    1    2    0    0  1.09656656040E+02  1.82671693203E+02  1.04714743590E+02  2.50205259582E+02  7.90187616083E+01  1.2506E-14  9.0
       -3    1    3    3    0  500 -1.11952042683E+02 -1.83789227767E+02 -1.11607414891E+02  2.42421028714E+02  0.00000000000E+00  0.0000E+00  9.0
        4    1    3    3  500    0  2.29538664374E+00  1.11753456449E+00  6.89267130030E+00  7.37371171065E+00  5.87386917370E-01  0.0000E+00  9.0
        3    1    4    4  504    0  9.82041143190E+01  8.83500579226E+01  5.68025340439E+01  1.43792589093E+02  0.00000000000E+00  0.0000E+00  9.0
       -4    1    4    4    0  504  1.14525417207E+01  9.43216352799E+01  4.79122095464E+01  1.06412670490E+02  5.87386917370E-01  0.0000E+00  9.0
</event>
<event>
 8    1   5.1859766E+00   4.9340000E+02  -1.0000000E+00   9.3640000E-02
       11   -1    0    0    0    0  0.00000000000E+00  0.00000000000E+00  2.43458517170E+02  2.43458517170E+02  0.00000000000E+00  0.0000E+00  9.0
      -11   -1    0    0    0    0  0.00000000000E+00  0.00000000000E+00 -2.49999546740E+02  2.49999546740E+02  0.00000000000E+00  0.0000E+00  9.0
       24    2    1    2    0    0 -2.73038024360E+01 -1.75263558711E+01 -2.34634533058E+02  2.50153824006E+02  8.04419093751E+01  1.1469E-14  9.0
      -24    2    1    2    0    0  2.73038024360E+01  1.75263558711E+01  2.28093503498E+02  2.43304239903E+02  7.82153184422E+01  1.9131E-13  9.0
       -1    1    3    3    0  500 -4.19719236422E+01 -8.97829832650E+00 -2.27872531890E+02  2.31879587297E+02  0.00000000000E+00  0.0000E+00  9.0
        2    1    3    3  500    0  1.46681212062E+01 -8.54805754457E+00 -6.76200116810E+00  1.82742367092E+01  0.00000000000E+00  0.0000E+00  9.0
        1    1    4    4  504    0  4.24664871185E+01  3.85425589840E+01  1.76229587826E+02  1.85326196223E+02  0.00000000000E+00  0.0000E+00  9.0
       -2    1    4    4    0  504 -1.51626846826E+01 -2.10162031129E+01  5.18639156723E+01  5.79780436798E+01  0.00000000000E+00  0.0000E+00  9.0
</event>
<event>
 8    1   5.1859766E+00   4.5450000E+02  -1.0000000E+00   9.4560000E-02
       11   -1    0    0    0    0  0.00000000000E+00  0.00000000000E+00  2.06649897960E+02  2.06649897960E+02  0.00000000000E+00  0.0000E+00  9.0
      -11   -1    0    0    0    0  0.00000000000E+00  0.00000000000E+00 -2.49892492080E+02  2.49892492080E+02  0.00000000000E+00  0.0000E+00  9.0
       24    2    1    2    0    0 -3.55029630273E+01  3.25431707483E+01 -2.29672528720E+02  2.48053339054E+02  8.03832707812E+01  4.1608E-14  9.0
      -24    2    1    2    0    0  3.55029630273E+01 -3.25431707483E+01  1.86429934600E+02  2.08489050985E+02  7.99502690402E+01  2.2508E-14  9.0
      -13    1    3    3    0    0  1.31396793067E+01  4.20925359526E+01 -1.11744250227E+02  1.20130018673E+02  1.05700000000E-01  0.0000E+00  9.0
       14    1    3    3    0    0 -4.86426423340E+01 -9.54936520428E+00 -1.17928278493E+02  1.27923320381E+02  0.00000000000E+00  0.0000E+00  9.0
        1    1    4    4  500    0  3.09719310614E+00  1.65088992482E+01  1.13868056127E+02  1.15100263100E+02  0.00000000000E+00  0.0000E+00  9.0
       -2    1    4    4    0  500  3.24057699211E+01 -4.90520699965E+01  7.25618784728E+01  9.33887878850E+01  0.00000000000E+00  0.0000E+00  9.0
</event>
<event>
 8    1   5.1859766E+00   4.7770000E+02  -1.0000000E+00   9.4000000E-02
       11   -1    0    0    0    0  0.00000000000E+00  0.00000000000E+00  2.49997538290E+02  2.49997538290E+02  0.00000000000E+00  0.0000E+00  9.0
      -11   -1    0    0    0    0  0.00000000000E+00  0.00000000000E+00 -2.28210619910E+02  2.28210619910E+02  0.00000000000E+00  0.0000E+00  9.0
       24    2    1    2    0    0  2.75789328532E+00 -2.85454980468E+01 -2.12021390934E+02  2.29441226769E+02  8.28719186069E+01  1.2045E-13  9.0
      -24    2    1    2    0    0 -2.75789328532E+00  2.85454980468E+01  2.33808309314E+02  2.48766931434E+02  7.99763042207E+01  5.2411E-14  9.0
       -3    1    3    3    0  500 -2.65041691171E+00  2.60697114144E+01 -1.15224226614E+02  1.18166310605E+02  0.00000000000E+00  0.0000E+00  9.0
        4    1    3    3  500    0  5.40831019703E+00 -5.46152094613E+01 -9.67971643197E+01  1.11274916165E+02  5.87386917370E-01  0.0000E+00  9.0
        3    1    4    4  504    0  2.24629763881E+01  1.08497288284E+00  1.89612172896E+02  1.90941191430E+02  0.00000000000E+00  0.0000E+00  9.0
       -4    1    4    4    0  504 -2.52208696734E+01  2.74605251640E+01  4.41961364180E+01  5.78257400042E+01  5.87386917370E-01  0.0000E+00  9.0
</event>
<event>
 8    1   5.1859766E+00   4.9200000E+02  -1.0000000E+00   9.3670000E-02
       11   -1    0    0    0    0  0.00000000000E+00  0.00000000000E+00  2.42177143420E+02  2.42177143420E+02  0.00000000000E+00  0.0000E+00  9.0
      -11   -1    0    0    0    0  0.00000000000E+00  0.00000000000E+00 -2.49929049760E+02  2.49929049760E+02  0.00000000000E+00  0.0000E+00  9.0
       24    2    1    2    0    0  2.21632176861E+02  2.74910916113E+01  5.98008881104E+01  2.45912247819E+02  8.37860696674E+01  1.3129E-13  9.0
      -24    2    1    2    0    0 -2.21632176861E+02 -2.74910916113E+01 -6.75527944534E+01  2.46193945364E+02  7.85588744654E+01  5.1683E-14  9.0
       -1    1    3    3    0  500  9.43345967466E+01  6.30018079813E+00 -1.65293910339E+01  9.59787955196E+01  0.00000000000E+00  0.0000E+00  9.0
        2    1    3    3  500    0  1.27297580114E+02  2.11909108132E+01  7.63302791443E+01  1.49933452299E+02  0.00000000000E+00  0.0000E+00  9.0
        3    1    4    4  504    0 -1.45015788628E+01  4.29716048969E+00  1.46825713807E+01  2.10793567297E+01  0.00000000000E+00  0.0000E+00  9.0
       -4    1    4    4    0  504 -2.07130597998E+02 -3.17882521010E+01 -8.22353658341E+01  2.25114588634E+02  5.87386917370E-01  0.0000E+00  9.0
</event>
<event>
 8    1   5.1859766E+00   4.9680000E+02  -1.0000000E+00   9.3560000E-02
       11   -1    0    0    0    0  0.00000000000E+00  0.00000000000E+00  2.46832337440E+02  2.46832337440E+02  0.00000000000E+00  0.0000E+00  9.0
      -11   -1    0    0    0    0  0.00000000000E+00  0.00000000000E+00 -2.49996256590E+02  2.49996256590E+02  0.00000000000E+00  0.0000E+00  9.0
       24    2    1    2    0    0 -1.49847744079E+01  1.17004203825E+02 -2.04929079333E+02  2.49301955752E+02  7.90000658782E+01  8.3253E-14  9.0
      -24    2    1    2    0    0  1.49847744079E+01 -1.17004203825E+02  2.01765160173E+02  2.47526638283E+02  8.15213445849E+01  4.2212E-14  9.0
       -3    1    3    3    0  500  7.53772824997E+00  1.18563346620E+02 -1.79924319845E+02  2.15608082828E+02  0.00000000000E+00  0.0000E+00  9.0
        4    1    3    3  500    0 -2.25225026579E+01 -1.55914279443E+00 -2.50047594881E+01  3.36938729249E+01  5.87386917370E-01  0.0000E+00  9.0
        1    1    4    4  504    0  9.63565398070E+00  3.94383149233E+00 -1.91122831367E+00  1.05854819514E+01  0.00000000000E+00  0.0000E+00  9.0
       -2    1    4    4    0  504  5.34912042720E+00 -1.20948035318E+02  2.03676388487E+02  2.36941156331E+02  0.00000000000E+00  0.0000E+00  9.0
</event>
<event>
 8    1   5.1859766E+00   4.8550000E+02  -1.0000000E+00   9.3820000E-02
       11   -1    0    0    0    0  0.00000000000E+00  0.00000000000E+00  2.36049746350E+02  2.36049746350E+02  0.00000000000E+00  0.0000E+00  9.0
      -11   -1    0    0    0    0  0.00000000000E+00  0.00000000000E+00 -2.49612801380E+02  2.49612801380E+02  0.00000000000E+00  0.0000E+00  9.0
       24    2    1    2    0    0  6.21585388076E+01 -7.42725945841E+01 -2.14301698943E+02  2.48484142853E+02  8.02436840301E+01  3.7978E-14  9.0
      -24    2    1    2    0    0 -6.21585388076E+01  7.42725945841E+01  2.00738643903E+02  2.37178404873E+02  8.11017282732E+01  9.6153E-14  9.0
       -1    1    3    3    0  500  5.49076070526E+01 -8.49929732027E+01 -1.38162586705E+02  1.71252886607E+02  0.00000000000E+00  0.0000E+00  9.0
        2    1    3    3  500    0  7.25093175495E+00  1.07203786186E+01 -7.61391122381E+01  7.72312562467E+01  0.00000000000E+00  0.0000E+00  9.0
       13    1    4    4    0    0 -3.50086630820E+01  4.39459171565E+01  3.42854291449E+01  6.58206042942E+01  1.05700000000E-01  0.0000E+00  9.0
      -14    1    4    4    0    0 -2.71498757256E+01  3.03266774276E+01  1.66453214758E+02  1.71357800578E+02  0.00000000000E+00  0.0000E+00  9.0
</event>
<event>
 8    1   5.1859766E+00   4.9290000E+02  -1.0000000E+00   9.3650000E-02
       11   -1    0    0    0    0  0.00000000000E+00  0.00000000000E+00  2.44000375460E+02  2.44000375460E+02  0.00000000000E+00  0.0000E+00  9.0
      -11   -1    0    0    0    0  0.00000000000E+00  0.00000000000E+00 -2.48951291290E+02  2.48951291290E+02  0.00000000000E+00  0.0000E+00  9.0
       24    2    1    2    0    0 -2.84650230386E-01  3.20143495142E+01 -2.34948325395E+02  2.47416116781E+02  7.06329925502E+01  5.5305E-14  9.0
      -24    2    1    2    0    0  2.84650230386E-01 -3.20143495142E+01  2.29997409575E+02  2.45535549967E+02  7.97740451874E+01  5.6320E-14  9.0
       -3    1    3    3    0  500  1.79732736214E+01 -1.59964793065E+01 -1.04130544202E+02  1.06874207134E+02  0.00000000000E+00  0.0000E+00  9.0
        4    1    3    3  500    0 -1.82579238517E+01  4.80108288207E+01 -1.30817781193E+02  1.40541909647E+02  5.87386917370E-01  0.0000E+00  9.0
        3    1    4    4  504    0 -3.85502681678E+01 -2.08829987447E+01  9.51452038753E+01  1.04760835396E+02  0.00000000000E+00  0.0000E+00  9.0
       -4    1    4    4    0  504  3.88349183982E+01 -1.11313507695E+01  1.34852205700E+02  1.40774714571E+02  5.87386917370E-01  0.0000E+00  9.0
</event>
<event>
 8    1   5.1859766E+00   3.4580000E+02  -1.0000000E+00   9.7760000E-02
       11   -1    0    0    0    0  0.00000000000E+00  0.00000000000E+00  1.20106803230E+02  1.20106803230E+02  0.00000000000E+00  0.0000E+00  9.0
      -11   -1    0    0    0    0  0.00000000000E+00  0.00000000000E+00 -2.48888218570E+02  2.48888218570E+02  0.00000000000E+00  0.0000E+00  9.0
       24    2    1    2    0    0 -9.72204186286E+01  1.12329763020E+02 -1.01818857855E+02  1.98249513989E+02  8.28613572370E+01  6.7601E-14  9.0
      -24    2    1    2    0    0  9.72204186286E+01 -1.12329763020E+02 -2.69625574776E+01  1.70745507815E+02  7.97324493211E+01  3.6695E-14  9.0
       -3    1    3    3    0  500 -3.12406797264E+00  4.81865099771E+01 -4.58372331777E+00  4.85047426952E+01  0.00000000000E+00  0.0000E+00  9.0
        4    1    3    3  500    0 -9.40963506560E+01  6.41432530433E+01 -9.72351345376E+01  1.49744771293E+02  5.87386917370E-01  0.0000E+00  9.0
        3    1    4    4  504    0  1.53679192792E+01 -5.69931916522E+01 -3.96800899643E+01  7.11259894641E+01  0.00000000000E+00  0.0000E+00  9.0
       -4    1    4    4    0  504  8.18524993494E+01 -5.53365713683E+01  1.27175324867E+01  9.96195183510E+01  5.87386917370E-01  0.0000E+00  9.0
</event>
<event>
 8    1   5.1859766E+00   4.9370000E+02  -1.0000000E+00   9.3630000E-02
       11   -1    0    0    0    0  0.00000000000E+00  0.00000000000E+00  2.49999889480E+02  2.49999889480E+02  0.00000000000E+00  0.0000E+00  9.0
      -11   -1    0    0    0    0  0.00000000000E+00  0.00000000000E+00 -2.43788632990E+02  2.43788632990E+02  0.00000000000E+00  0.0000E+00  9.0
       24    2    1    2    0    0 -3.53643066146E+01 -9.62928927011E+01 -2.02342727105E+02  2.40639639790E+02  8.02614581174E+01  2.7370E-13  9.0
      -24    2    1    2    0    0  3.53643066146E+01  9.62928927011E+01  2.08553983595E+02  2.53148882670E+02  1.00332633559E+02  2.9074E-13  9.0
       -1    1    3    3    0  500  6.41315507071E-01 -1.33378348730E+01  5.13796847415E+00  1.43076149208E+01  0.00000000000E+00  0.0000E+00  9.0
        2    1    3    3  500    0 -3.60056221216E+01 -8.29550578281E+01 -2.07480695579E+02  2.26332024869E+02  0.00000000000E+00  0.0000E+00  9.0
        3    1    4    4  504    0 -2.77760383569E+01  1.38396217532E+00  2.69147912365E+01  3.87018041622E+01  0.00000000000E+00  0.0000E+00  9.0
       -4    1    4    4    0  504  6.31403449715E+01  9.49089305258E+01  1.81639192358E+02  2.14447078508E+02  5.87386917370E-01  0.0000E+00  9.0
</event>
<event>
 8    1   5.1859766E+00   4.7000000E+02  -1.0000000E+00   9.4180000E-02
       11   -1    0    0    0    0  0.00000000000E+00  0.00000000000E+00  2.49999999990E+02  2.49999999990E+02  0.00000000000E+00  0.0000E+00  9.0
      -11   -1    0    0    0    0  0.00000000000E+00  0.00000000000E+00 -2.20918505590E+02  2.20918505590E+02  0.00000000000E+00  0.0000E+00  9.0
       24    2    1    2    0    0 -3.75553440580E+00 -1.70508475082E+01 -2.05948613283E+02  2.21815528704E+02  8.05137380947E+01  8.0409E-15  9.0
      -24    2    1    2    0    0  3.75553440580E+00  1.70508475082E+01  2.35030107683E+02  2.49102976874E+02  8.06740734729E+01  4.5387E-14  9.0
       -3    1    3    3    0  500 -8.08349333615E-01 -3.00178337632E+01 -2.16080300458E+01  3.69950095950E+01  0.00000000000E+00  0.0000E+00  9.0
        4    1    3    3  500    0 -2.94718507218E+00  1.29669862550E+01 -1.84340583237E+02  1.84820519109E+02  5.87386917370E-01  0.0000E+00  9.0
        1    1    4    4  504    0 -2.21220811262E+01 -1.74278655543E+01  1.60926474648E+02  1.63372112718E+02  0.00000000000E+00  0.0000E+00  9.0
       -2    1    4    4    0  504  2.58776155320E+01  3.44787130625E+01  7.41036330344E+01  8.57308641562E+01  0.00000000000E+00  0.0000E+00  9.0
</event>
<event>
 8    1   5.1859766E+00   4.4530000E+02  -1.0000000E+00   9.4790000E-02
       11   -1    0    0    0    0  0.00000000000E+00  0.00000000000E+00  2.46803676810E+02  2.46803676810E+02  0.00000000000E+00  0.0000E+00  9.0
      -11   -1    0    0    0    0  0.00000000000E+00  0.00000000000E+00 -2.00846966160E+02  2.00846966160E+02  0.00000000000E+00  0.0000E+00  9.0
       24    2    1    2    0    0 -7.37214902267E+01 -8.71729085433E+01 -1.50473335232E+02  2.06674378969E+02  8.38933859193E+01  2.3263E-13  9.0
      -24    2    1    2    0    0  7.37214902267E+01  8.71729085433E+01  1.96430045882E+02  2.40976264000E+02  8.03170142670E+01  3.4112E-15  9.0
      -13    1    3    3    0    0 -9.95011958504E+00  1.02406334879E+01 -5.28097396020E+01  5.47060803139E+01  1.05700000000E-01  0.0000E+00  9.0
       14    1    3    3    0    0 -6.37713706417E+01 -9.74135420312E+01 -9.76635956305E+01  1.51968298655E+02  0.00000000000E+00  0.0000E+00  9.0
        1    1    4    4  500    0  5.04419852066E+01  9.32612091511E+01  1.16604317110E+02  1.57602708646E+02  0.00000000000E+00  0.0000E+00  9.0
       -2    1    4    4    0  500  2.32795050201E+01 -6.08830060777E+00  7.98257287721E+01  8.33735553534E+01  0.00000000000E+00  0.0000E+00  9.0
</event>
<event>
 8    1   5.1859766E+00   4.9860000E+02  -1.0000000E+00   9.3520000E-02
       11   -1    0    0    0    0  0.00000000000E+00  0.00000000000E+00  2.49950747280E+02  2.49950747280E+02  0.00000000000E+00  0.0000E+00  9.0
      -11   -1    0    0    0    0  0.00000000000E+00  0.00000000000E+00 -2.48682115330E+02  2.48682115330E+02  0.00000000000E+00  0.0000E+00  9.0
       24    2    1    2    0    0  5.24383376133E+00  4.09900696316E+01 -2.32310339491E+02  2.48933205279E+02  7.93218964434E+01  1.6657E-13  9.0
      -24    2    1    2    0    0 -5.24383376133E+00 -4.09900696316E+01  2.33578971441E+02  2.49699657337E+02  7.79942265421E+01  2.2459E-13  9.0
       -1    1    3    3    0  500  1.24181797890E+01 -1.64990603159E+00 -1.82680407709E+02  1.83109433782E+02  0.00000000000E+00  0.0000E+00  9.0
        2    1    3    3  500    0 -7.17434602768E+00  4.26399756632E+01 -4.96299317818E+01  6.58237714974E+01  0.00000000000E+00  0.0000E+00  9.0
        3    1    4    4  504    0  4.61906432687E+00  2.27328787543E+01  7.51901408809E+01  7.86872087280E+01  0.00000000000E+00  0.0000E+00  9.0
       -4    1    4    4    0  504 -9.86289808820E+00 -6.37229483859E+01  1.58388830560E+02  1.71012448609E+02  5.87386917370E-01  0.0000E+00  9.0
</event>
<event>
 8    1   5.1859766E+00   4.9080000E+02  -1.0000000E+00   9.3700000E-02
       11   -1    0    0    0    0  0.00000000000E+00  0.00000000000E+00  2.50000000000E+02  2.50000000000E+02  0.00000000000E+00  0.0000E+00  9.0
      -11   -1    0    0    0    0  0.00000000000E+00  0.00000000000E+00 -2.40894710910E+02  2.40894710910E+02  0.00000000000E+00  0.0000E+00  9.0
       24    2    1    2    0    0 -1.70595609828E+02 -1.34591811184E+02 -7.59178798151E+01  2.44421307114E+02  8.22218533333E+01  2.0254E-13  9.0
      -24    2    1    2    0    0  1.70595609828E+02  1.34591811184E+02  8.50231689011E+01  2.46473403810E+02  7.93875418771E+01  6.4007E-14  9.0
      -13    1    3    3    0    0 -1.98076526015E+01 -1.12649709475E+01  1.71619611283E+01  2.85269478614E+01  1.05700000000E-01  0.0000E+00  9.0
       14    1    3    3    0    0 -1.50787957226E+02 -1.23326840237E+02 -9.30798409434E+01  2.15894359253E+02  0.00000000000E+00  0.0000E+00  9.0
        3    1    4    4  500    0  4.65203420477E+01  8.13675621542E+01  5.31616908058E+01  1.07754293485E+02  0.00000000000E+00  0.0000E+00  9.0
       -4    1    4    4    0  500  1.24075267780E+02  5.32242490302E+01  3.18614780953E+01  1.38719110325E+02  5.87386917370E-01  0.0000E+00  9.0
</event>
<event>
 8    1   5.1859766E+00   5.0000000E+02  -1.0000000E+00   9.3490000E-02
       11   -1    0    0    0    0  0.00000000000E+00  0.00000000000E+00  2.49973692940E+02  2.49973692940E+02  0.00000000000E+00  0.0000E+00  9.0
      -11   -1    0    0    0    0  0.00000000000E+00  0.00000000000E+00 -2.49999999910E+02  2.49999999910E+02  0.00000000000E+00  0.0000E+00  9.0
       24    2    1    2    0    0  3.44325273967E+01  3.79814780713E+01 -2.30285604301E+02  2.49117073685E+02  7.99979076837E+01  3.0020E-14  9.0
      -24    2    1    2    0    0 -3.44325273967E+01 -3.79814780713E+01  2.30259297331E+02  2.50856619161E+02  8.53317511269E+01  1.1513E-13  9.0
       -3    1    3    3    0  500  4.45115697753E+01 -7.40737414716E+00 -8.05501515795E+01  9.23280886572E+01  0.00000000000E+00  0.0000E+00  9.0
        4    1    3    3  500    0 -1.00790423787E+01  4.53888522184E+01 -1.49735452721E+02  1.56788985028E+02  5.87386917370E-01  0.0000E+00  9.0
        3    1    4    4  504    0  7.83884833240E+00  2.06987319075E+01  2.58548357752E+01  3.40346526164E+01  0.00000000000E+00  0.0000E+00  9.0
       -4    1    4    4    0  504 -4.22713757291E+01 -5.86802099788E+01  2.04404461556E+02  2.16821966545E+02  5.87386917370E-01  0.0000E+00  9.0
</event>
<event>
 8    1   5.1859766E+00   4.9670000E+02  -1.0000000E+00   9.3560000E-02
       11   -1    0    0    0    0  0.00000000000E+00  0.00000000000E+00  2.46982489410E+02  2.46982489410E+02  0.00000000000E+00  0.0000E+00  9.0
      -11   -1    0    0    0    0  0.00000000000E+00  0.00000000000E+00 -2.49707563290E+02  2.49707563290E+02  0.00000000000E+00  0.0000E+00  9.0
       24    2    1    2    0    0  1.21286068372E+02  1.80525927821E+02  8.67349850442E+01  2.47739375633E+02  8.09439288124E+01  1.7513E-13  9.0
      -24    2    1    2    0    0 -1.21286068372E+02 -1.80525927821E+02 -8.94600589282E+01  2.48950677064E+02  8.16909815707E+01  8.9477E-15  9.0
       -3    1    3    3    0  500  1.77510565246E+01  6.03282101563E+00  3.28242758063E+01  3.78011642592E+01  0.00000000000E+00  0.0000E+00  9.0
        4    1    3    3  500    0  1.03535011848E+02  1.74493106806E+02  5.39107092379E+01  2.09938211374E+02  5.87386917370E-01  0.0000E+00  9.0
        3    1    4    4  504    0 -2.75236493529E+01 -8.52045499810E+01 -2.73869912924E+00  8.95816224685E+01  0.00000000000E+00  0.0000E+00  9.0
       -4    1    4    4    0  504 -9.37624190192E+01 -9.53213778404E+01 -8.67213597989E+01  1.59369054595E+02  5.87386917370E-01  0.0000E+00  9.0
</event>
<event>
 8    1   5.1859766E+00   5.0000000E+02  -1.0000000E+00   9.3490000E-02
       11   -1    0    0    0    0  0.00000000000E+00  0.00000000000E+00  2.50000000000E+02  2.50000000000E+02  0.00000000000E+00  0.0000E+00  9.0
      -11   -1    0    0    0    0  0.00000000000E+00  0.00000000000E+00 -2.49999949670E+02  2.49999949670E+02  0.00000000000E+00  0.0000E+00  9.0
       24    2    1    2    0    0  1.05670729317E+02 -4.33088751900E+01 -2.07648834027E+02  2.50585302765E+02  8.14431948307E+01  3.5477E-14  9.0
      -24    2    1    2    0    0 -1.05670729317E+02  4.33088751900E+01  2.07648884357E+02  2.49414646912E+02  7.77666073244E+01  9.6153E-15  9.0
       -3    1    3    3    0  500  1.14892072271E+02 -2.34744703691E+01 -1.62273759491E+02  2.00209919957E+02  0.00000000000E+00  0.0000E+00  9.0
        4    1    3    3  500    0 -9.22134295399E+00 -1.98344048209E+01 -4.53750745360E+01  5.03753828076E+01  5.87386917370E-01  0.0000E+00  9.0
        3    1    4    4  504    0 -3.61327010499E+01  3.17829667427E+01  1.52508639169E+02  1.59920649328E+02  0.00000000000E+00  0.0000E+00  9.0
       -4    1    4    4    0  504 -6.95380282671E+01  1.15259084473E+01  5.51402451879E+01  8.94939975841E+01  5.87386917370E-01  0.0000E+00  9.0
</event>
<event>
 8    1   5.1859766E+00   4.9000000E+02  -1.0000000E+00   9.3720000E-02
       11   -1    0    0    0    0  0.00000000000E+00  0.00000000000E+00  2.43697280330E+02  2.43697280330E+02  0.00000000000E+00  0.0000E+00  9.0
      -11   -1    0    0    0    0  0.00000000000E+00  0.00000000000E+00 -2.46279469270E+02  2.46279469270E+02  0.00000000000E+00  0.0000E+00  9.0
       24    2    1    2    0    0  1.09132387073E+02 -1.96414923195E+02 -5.37464215466E+01  2.45498833390E+02  8.30198735542E+01  7.9402E-14  9.0
      -24    2    1    2    0    0 -1.09132387073E+02  1.96414923195E+02  5.11642326096E+01  2.44477916208E+02  8.16270350611E+01  4.7002E-15  9.0
       -3    1    3    3    0  500  1.28912967443E-02 -3.87077550657E+01 -3.60679129418E+01  5.29073228617E+01  0.00000000000E+00  0.0000E+00  9.0
        4    1    3    3  500    0  1.09119495776E+02 -1.57707168129E+02 -1.76785086048E+01  1.92591510528E+02  5.87386917370E-01  0.0000E+00  9.0
        1    1    4    4  504    0  8.73095737842E+00  3.11910169221E+01  2.26635809203E+01  3.95315956358E+01  0.00000000000E+00  0.0000E+00  9.0
       -2    1    4    4    0  504 -1.17863344451E+02  1.65223906273E+02  2.85006516893E+01  2.04946320572E+02  0.00000000000E+00  0.0000E+00  9.0
</event>
<event>
 8    1   5.1859766E+00   4.9870000E+02  -1.0000000E+00   9.3520000E-02
       11   -1    0    0    0    0  0.00000000000E+00  0.00000000000E+00  2.48663120570E+02  2.48663120570E+02  0.00000000000E+00  0.0000E+00  9.0
      -11   -1    0    0    0    0  0.00000000000E+00  0.00000000000E+00 -2.50000000000E+02  2.50000000000E+02  0.00000000000E+00  0.0000E+00  9.0
       24    2    1    2    0    0  5.75845713236E-02  5.91926597806E+00 -2.36411401739E+02  2.49689009837E+02  8.01199708925E+01  1.8953E-13  9.0
      -24    2    1    2    0    0 -5.75845713236E-02 -5.91926597806E+00  2.35074522319E+02  2.48974110730E+02  8.18109756989E+01  4.5773E-15  9.0
       -1    1    3    3    0  500 -1.77449561724E+01 -1.43554467844E+00 -6.46986753929E+00  1.89421076985E+01  0.00000000000E+00  0.0000E+00  9.0
        2    1    3    3  500    0  1.78025407437E+01  7.35481065651E+00 -2.29941534199E+02  2.30746902139E+02  0.00000000000E+00  0.0000E+00  9.0
       13    1    4    4    0    0  4.65603704005E+00 -4.34754663301E+01  1.38893061988E+02  1.45612804019E+02  1.05700000000E-01  0.0000E+00  9.0
      -14    1    4    4    0    0 -4.71362161137E+00  3.75562003521E+01  9.61814603310E+01  1.03361306711E+02  0.00000000000E+00  0.0000E+00  9.0
</event>
<event>
 8    1   5.1859766E+00   4.9550000E+02  -1.0000000E+00   9.3590000E-02
       11   -1    0    0    0    0  0.00000000000E+00  0.00000000000E+00  2.49999981400E+02  2.49999981400E+02  0.00000000000E+00  0.0000E+00  9.0
      -11   -1    0    0    0    0  0.00000000000E+00  0.00000000000E+00 -2.45485998560E+02  2.45485998560E+02  0.00000000000E+00  0.0000E+00  9.0
       24    2    1    2    0    0 -8.59591695339E+01  1.23696810884E+01 -2.15446399696E+02  2.45668920710E+02  7.99629890860E+01  1.1559E-13  9.0
      -24    2    1    2    0    0  8.59591695339E+01 -1.23696810884E+01  2.19960382526E+02  2.49817059244E+02  8.05233219068E+01  1.7167E-14  9.0
       -3    1    3    3    0  500  9.41423802315E+00 -8.41368154534E+00 -4.80566966054E+00  1.35097141194E+01  0.00000000000E+00  0.0000E+00  9.0
        4    1    3    3  500    0 -9.53734075571E+01  2.07833626337E+01 -2.10640730035E+02  2.32159206590E+02  5.87386917370E-01  0.0000E+00  9.0
        1    1    4    4  504    0  5.38658245831E+01 -4.66388280440E+01  1.24891010745E+02  1.43786202065E+02  0.00000000000E+00  0.0000E+00  9.0
       -2    1    4    4    0  504  3.20933449508E+01  3.42691469557E+01  9.50693717813E+01  1.06030857179E+02  0.00000000000E+00  0.0000E+00  9.0
</event>
<event>
 8    1   5.1859766E+00   4.1800000E+02  -1.0000000E+00   9.5520000E-02
       11   -1    0    0    0    0  0.00000000000E+00  0.00000000000E+00  1.82498497270E+02  1.82498497270E+02  0.00000000000E+00  0.0000E+00  9.0
      -11   -1    0    0    0    0  0.00000000000E+00  0.00000000000E+00 -2.39363584520E+02  2.39363584520E+02  0.00000000000E+00  0.0000E+00  9.0
       24    2    1    2    0    0 -1.79085091469E+01 -1.51976193648E+01 -2.21259195070E+02  2.36769877762E+02  8.09485100422E+01  1.4337E-13  9.0
      -24    2    1    2    0    0  1.79085091469E+01  1.51976193648E+01  1.64394107810E+02  1.85092204035E+02  8.17436173509E+01  2.2668E-14  9.0
       -1    1    3    3    0  500 -2.64289735398E+01 -4.35690894656E+01 -1.03815674565E+02  1.15647959276E+02  0.00000000000E+00  0.0000E+00  9.0
        2    1    3    3  500    0  8.52046439289E+00  2.83714701008E+01 -1.17443520505E+02  1.21121918486E+02  0.00000000000E+00  0.0000E+00  9.0
        1    1    4    4  504    0  5.03818808321E+01  7.53772286421E+00  8.70862227238E+01  1.00891830048E+02  0.00000000000E+00  0.0000E+00  9.0
       -2    1    4    4    0  504 -3.24733716852E+01  7.65989650061E+00  7.73078850862E+01  8.42003739867E+01  0.00000000000E+00  0.0000E+00  9.0
</event>
<event>
 8    1   5.1859766E+00   4.9560000E+02  -1.0000000E+00   9.3590000E-02
       11   -1    0    0    0    0  0.00000000000E+00  0.00000000000E+00  2.47176732790E+02  2.47176732790E+02  0.00000000000E+00  0.0000E+00  9.0
      -11   -1    0    0    0    0  0.00000000000E+00  0.00000000000E+00 -2.48473572930E+02  2.48473572930E+02  0.00000000000E+00  0.0000E+00  9.0
       24    2    1    2    0    0 -1.37461279860E+02 -2.11949506995E+00 -1.88892513922E+02  2.50051229577E+02  8.91355141160E+01  2.6191E-13  9.0
      -24    2    1    2    0    0  1.37461279860E+02  2.11949506995E+00  1.87595673782E+02  2.45599076142E+02  7.89092748663E+01  4.0252E-14  9.0
       -1    1    3    3    0  500 -7.79302587970E+00 -2.94231916357E+01 -4.61412030984E+01  5.52762705124E+01  0.00000000000E+00  0.0000E+00  9.0
        2    1    3    3  500    0 -1.29668253981E+02  2.73036965657E+01 -1.42751310824E+02  1.94774959064E+02  0.00000000000E+00  0.0000E+00  9.0
        1    1    4    4  504    0  5.42716474356E+01  3.52107553836E+01  5.14691709817E+01  8.26697318951E+01  0.00000000000E+00  0.0000E+00  9.0
       -2    1    4    4    0  504  8.31896324248E+01 -3.30912603137E+01  1.36126502800E+02  1.62929344247E+02  0.00000000000E+00  0.0000E+00  9.0
</event>
<event>
 8    1   5.1859766E+00   2.5060000E+02  -1.0000000E+00   1.0180000E-01
       11   -1    0    0    0    0  0.00000000000E+00  0.00000000000E+00  6.28050580900E+01  6.28050580900E+01  0.00000000000E+00  0.0000E+00  9.0
      -11   -1    0    0    0    0  0.00000000000E+00  0.00000000000E+00 -2.49968598800E+02  2.49968598800E+02  0.00000000000E+00  0.0000E+00  9.0
       24    2    1    2    0    0  8.54311140648E+01  4.14512066366E+01 -1.03393361517E+02  1.62883128066E+02  8.26077987887E+01  1.7793E-13  9.0
      -24    2    1    2    0    0 -8.54311140648E+01 -4.14512066366E+01 -8.37701791965E+01  1.49890528827E+02  8.02062960578E+01  1.1743E-13  9.0
       -3    1    3    3    0  500  8.26173026590E+01  1.39234078080E+00 -5.18875292427E+01  9.75698365398E+01  0.00000000000E+00  0.0000E+00  9.0
        4    1    3    3  500    0  2.81381140582E+00  4.00588658558E+01 -5.15058322748E+01  6.53132915262E+01  5.87386917370E-01  0.0000E+00  9.0
       13    1    4    4    0    0 -3.19081446169E+01 -7.35311301899E+00  1.21086028512E+01  3.49117086299E+01  1.05700000000E-01  0.0000E+00  9.0
      -14    1    4    4    0    0 -5.35229694480E+01 -3.40980936176E+01 -9.58787820477E+01  1.14978820197E+02  0.00000000000E+00  0.0000E+00  9.0
</event>
<event>
 8    1   5.1859766E+00   4.6390000E+02  -1.0000000E+00   9.4330000E-02
       11   -1    0    0    0    0  0.00000000000E+00  0.00000000000E+00  2.18840064000E+02  2.18840064000E+02  0.00000000000E+00  0.0000E+00  9.0
      -11   -1    0    0    0    0  0.00000000000E+00  0.00000000000E+00 -2.45806866000E+02  2.45806866000E+02  0.00000000000E+00  0.0000E+00  9.0
       24    2    1    2    0    0  4.42859112515E+01 -1.94333237671E+01 -2.26165019973E+02  2.45061344497E+02  8.10280834002E+01  5.3620E-15  9.0
      -24    2    1    2    0    0 -4.42859112515E+01  1.94333237671E+01  1.99198217973E+02  2.19585585505E+02  7.87337494976E+01  1.4258E-13  9.0
       -3    1    3    3    0  500  1.87460787357E+01  3.85379266094E+00 -2.01953015940E+02  2.02857802002E+02  0.00000000000E+00  0.0000E+00  9.0
        4    1    3    3  500    0  2.55398325159E+01 -2.32871164281E+01 -2.42120040328E+01  4.22035424952E+01  5.87386917370E-01  0.0000E+00  9.0
        1    1    4    4  504    0 -3.35533003239E+00 -2.26679484547E+01  1.80852758136E+01  2.91919736918E+01  0.00000000000E+00  0.0000E+00  9.0
       -2    1    4    4    0  504 -4.09305812191E+01  4.21012722219E+01  1.81112942159E+02  1.90393611813E+02  0.00000000000E+00  0.0000E+00  9.0
</event>
<event>
 8    1   5.1859766E+00   5.0000000E+02  -1.0000000E+00   9.3490000E-02
       11   -1    0    0    0    0  0.00000000000E+00  0.00000000000E+00  2.49999793880E+02  2.49999793880E+02  0.00000000000E+00  0.0000E+00  9.0
      -11   -1    0    0    0    0  0.00000000000E+00  0.00000000000E+00 -2.50000000000E+02  2.50000000000E+02  0.00000000000E+00  0.0000E+00  9.0
       24    2    1    2    0    0  9.55446094072E+00  2.38834188110E+01 -2.35175345159E+02  2.49690777472E+02  7.98519628185E+01  2.2818E-13  9.0
      -24    2    1    2    0    0 -9.55446094072E+00 -2.38834188110E+01  2.35175139039E+02  2.50309016398E+02  8.17652264112E+01  1.5583E-13  9.0
       -1    1    3    3    0  500 -3.23047804301E+01  2.67366970286E+01 -1.16538404965E+02  1.23853339230E+02  0.00000000000E+00  0.0000E+00  9.0
        2    1    3    3  500    0  4.18592413708E+01 -2.85327821760E+00 -1.18636940195E+02  1.25837438243E+02  0.00000000000E+00  0.0000E+00  9.0
        1    1    4    4  504    0  3.10562853749E+01 -5.52292975913E-01  4.65889434302E+01  5.59939955599E+01  0.00000000000E+00  0.0000E+00  9.0
       -2    1    4    4    0  504 -4.06107463157E+01 -2.33311258351E+01  1.88586195609E+02  1.94315020838E+02  0.00000000000E+00  0.0000E+00  9.0
</event>
<event>
 8    1   5.1859766E+00   4.9630000E+02  -1.0000000E+00   9.3570000E-02
       11   -1    0    0    0    0  0.00000000000E+00  0.00000000000E+00  2.47033696240E+02  2.47033696240E+02  0.00000000000E+00  0.0000E+00  9.0
      -11   -1    0    0    0    0  0.00000000000E+00  0.00000000000E+00 -2.49281738640E+02  2.49281738640E+02  0.00000000000E+00  0.0000E+00  9.0
       24    2    1    2    0    0  2.14537896109E+02 -3.29346976540E+01  9.10241493068E+01  2.45693969480E+02  7.04906214014E+01  8.9693E-14  9.0
      -24    2    1    2    0    0 -2.14537896109E+02  3.29346976540E+01 -9.32721917018E+01  2.50621465394E+02  8.36672815073E+01  1.5804E-13  9.0
      -13    1    3    3    0    0  7.57622561397E+01 -1.60003345672E+01  6.98720233010E+01  1.04297847410E+02  1.05700000000E-01  0.0000E+00  9.0
       14    1    3    3    0    0  1.38775639969E+02 -1.69343630869E+01  2.11521260058E+01  1.41396122071E+02  0.00000000000E+00  0.0000E+00  9.0
        1    1    4    4  500    0 -2.09895247906E+02  4.85216055050E+01 -8.06412287264E+01  2.30029061348E+02  0.00000000000E+00  0.0000E+00  9.0
       -2    1    4    4    0  500 -4.64264820331E+00 -1.55869078510E+01 -1.26309629754E+01  2.05924040457E+01  0.00000000000E+00  0.0000E+00  9.0
</event>
<event>
 8    1   5.1859766E+00   4.9940000E+02  -1.0000000E+00   9.3500000E-02
       11   -1    0    0    0    0  0.00000000000E+00  0.00000000000E+00  2.49353552660E+02  2.49353552660E+02  0.00000000000E+00  0.0000E+00  9.0
      -11   -1    0    0    0    0  0.00000000000E+00  0.00000000000E+00 -2.49999999960E+02  2.49999999960E+02  0.00000000000E+00  0.0000E+00  9.0
       24    2    1    2    0    0 -8.40126541631E+01  2.18496054734E+01 -2.20569486276E+02  2.51082320939E+02  8.28003761671E+01  1.0502E-13  9.0
      -24    2    1    2    0    0  8.40126541631E+01 -2.18496054734E+01  2.19923038966E+02  2.48271231677E+02  7.57425249903E+01  5.0729E-14  9.0
       -3    1    3    3    0  500 -8.70037066188E+01 -4.99629593299E+00 -1.96256242648E+02  2.14735001146E+02  0.00000000000E+00  0.0000E+00  9.0
        4    1    3    3  500    0  2.99105245572E+00  2.68459014064E+01 -2.43132436271E+01  3.63473197936E+01  5.87386917370E-01  0.0000E+00  9.0
        3    1    4    4  504    0  9.19516496067E+01 -6.27710298175E+00  1.48815311147E+02  1.75044293592E+02  0.00000000000E+00  0.0000E+00  9.0
       -4    1    4    4    0  504 -7.93899544363E+00 -1.55725024917E+01  7.11077278181E+01  7.32269380853E+01  5.87386917370E-01  0.0000E+00  9.0
</event>
<event>
 8    1   5.1859766E+00   4.7620000E+02  -1.0000000E+00   9.4030000E-02
       11   -1    0    0    0    0  0.00000000000E+00  0.00000000000E+00  2.47175776960E+02  2.47175776960E+02  0.00000000000E+00  0.0000E+00  9.0
      -11   -1    0    0    0    0  0.00000000000E+00  0.00000000000E+00 -2.29402954590E+02  2.29402954590E+02  0.00000000000E+00  0.0000E+00  9.0
       24    2    1    2    0    0 -9.25803607540E+00 -1.32475198294E+02 -1.72363082849E+02  2.32057945307E+02  8.06626819274E+01  1.6361E-13  9.0
      -24    2    1    2    0    0  9.25803607540E+00  1.32475198294E+02  1.90135905229E+02  2.44520786243E+02  7.74813722942E+01  4.7072E-14  9.0
       -1    1    3    3    0  500 -3.33456979819E+01 -2.29760052682E+01 -2.78256433568E+01  4.91334796265E+01  0.00000000000E+00  0.0000E+00  9.0
        2    1    3    3  500    0  2.40876619065E+01 -1.09499193026E+02 -1.44537439492E+02  1.82924465680E+02  0.00000000000E+00  0.0000E+00  9.0
        1    1    4    4  504    0  1.83912395239E+01  3.77519845385E+01  1.17578654506E+02  1.24852673273E+02  0.00000000000E+00  0.0000E+00  9.0
       -2    1    4    4    0  504 -9.13320344850E+00  9.47232137556E+01  7.25572507225E+01  1.19668112970E+02  0.00000000000E+00  0.0000E+00  9.0
</event>
<event>
 8    1   5.1859766E+00   3.7400000E+02  -1.0000000E+00   9.6820000E-02
       11   -1    0    0    0    0  0.00000000000E+00  0.00000000000E+00  2.34623979060E+02  2.34623979060E+02  0.00000000000E+00  0.0000E+00  9.0
      -11   -1    0    0    0    0  0.00000000000E+00  0.00000000000E+00 -1.49038964290E+02  1.49038964290E+02  0.00000000000E+00  0.0000E+00  9.0
       24    2    1    2    0    0 -1.76148700075E+01 -2.19739592223E+01 -1.27808513755E+02  1.53466121137E+02  8.01479607930E+01  1.4791E-13  9.0
      -24    2    1    2    0    0  1.76148700075E+01  2.19739592223E+01  2.13393528525E+02  2.30196822196E+02  8.16127465763E+01  1.8406E-13  9.0
       -3    1    3    3    0  500  1.30942704827E+01 -1.10059296517E+01 -1.18248864581E+02  1.19479640030E+02  0.00000000000E+00  0.0000E+00  9.0
        4    1    3    3  500    0 -3.07091404901E+01 -1.09680295705E+01 -9.55964917361E+00  3.39864811067E+01  5.87386917370E-01  0.0000E+00  9.0
        1    1    4    4  504    0  4.35144552514E+01  3.05842732547E+01  9.67834231845E+01  1.10435214446E+02  0.00000000000E+00  0.0000E+00  9.0
       -2    1    4    4    0  504 -2.58995852439E+01 -8.61031403246E+00  1.16610105340E+02  1.19761607751E+02  0.00000000000E+00  0.0000E+00  9.0
</event>
<event>
 8    1   5.1859766E+00   4.9890000E+02  -1.0000000E+00   9.3520000E-02
       11   -1    0    0    0    0  0.00000000000E+00  0.00000000000E+00  2.48875534480E+02  2.48875534480E+02  0.00000000000E+00  0.0000E+00  9.0
      -11   -1    0    0    0    0  0.00000000000E+00  0.00000000000E+00 -2.49986015350E+02  2.49986015350E+02  0.00000000000E+00  0.0000E+00  9.0
       24    2    1    2    0    0  5.13918400455E+01 -1.17563146350E+02 -2.01785107249E+02  2.47289879576E+02  6.30304722353E+01  1.5119E-13  9.0
      -24    2    1    2    0    0 -5.13918400455E+01  1.17563146350E+02  2.00674626379E+02  2.51571670244E+02  8.09678022055E+01  7.1807E-14  9.0
       -1    1    3    3    0  500 -6.76354467030E+00 -5.95775748002E+01 -7.19131479164E+01  9.36308378624E+01  0.00000000000E+00  0.0000E+00  9.0
        2    1    3    3  500    0  5.81553847158E+01 -5.79855715496E+01 -1.29871959333E+02  1.53659041714E+02  0.00000000000E+00  0.0000E+00  9.0
        1    1    4    4  504    0  1.82673260883E+01  5.98820416794E+00  1.70397101432E+01  2.56886261474E+01  0.00000000000E+00  0.0000E+00  9.0
       -2    1    4    4    0  504 -6.96591661339E+01  1.11574942182E+02  1.83634916236E+02  2.25883044097E+02  0.00000000000E+00  0.0000E+00  9.0
</event>
<event>
 8    1   5.1859766E+00   4.9960000E+02  -1.0000000E+00   9.3500000E-02
       11   -1    0    0    0    0  0.00000000000E+00  0.00000000000E+00  2.49995324730E+02  2.49995324730E+02  0.00000000000E+00  0.0000E+00  9.0
      -11   -1    0    0    0    0  0.00000000000E+00  0.00000000000E+00 -2.49613104160E+02  2.49613104160E+02  0.00000000000E+00  0.0000E+00  9.0
       24    2    1    2    0    0 -1.32593570960E-01 -1.89485572124E+02 -1.41640835979E+02  2.49507249165E+02  7.92902348646E+01  4.6473E-14  9.0
      -24    2    1    2    0    0  1.32593570960E-01  1.89485572124E+02  1.42023056549E+02  2.50101179728E+02  8.04689498242E+01  2.1405E-14  9.0
      -13    1    3    3    0    0  2.12150258862E+01 -1.81051528164E+02 -1.22580404970E+02  2.19671800714E+02  1.05700000000E-01  0.0000E+00  9.0
       14    1    3    3    0    0 -2.13476194572E+01 -8.43404395954E+00 -1.90604310091E+01  2.98354484507E+01  0.00000000000E+00  0.0000E+00  9.0
        3    1    4    4  500    0 -1.60450374398E+00  1.14688031915E+02  1.31582515054E+02  1.74556229808E+02  0.00000000000E+00  0.0000E+00  9.0
       -4    1    4    4    0  500  1.73709731494E+00  7.47975402085E+01  1.04405414947E+01  7.55449499200E+01  5.87386917370E-01  0.0000E+00  9.0
</event>
<event>
 8    1   5.1859766E+00   4.5760000E+02  -1.0000000E+00   9.4480000E-02
       11   -1    0    0    0    0  0.00000000000E+00  0.00000000000E+00  2.49995894550E+02  2.49995894550E+02  0.00000000000E+00  0.0000E+00  9.0
      -11   -1    0    0    0    0  0.00000000000E+00  0.00000000000E+00 -2.09419281440E+02  2.09419281440E+02  0.00000000000E+00  0.0000E+00  9.0
       24    2    1    2    0    0  5.67308571671E+00 -7.98363655580E+01 -1.79189040874E+02  2.12097662599E+02  8.04405180454E+01  4.5428E-14  9.0
      -24    2    1    2    0    0 -5.67308571671E+00  7.98363655580E+01  2.19765653984E+02  2.47317513385E+02  8.03926650194E+01  7.6603E-16  9.0
       -1    1    3    3    0  500  2.55105071259E+01 -6.21495434726E+01 -1.71866250199E+02  1.84530105091E+02  0.00000000000E+00  0.0000E+00  9.0
        2    1    3    3  500    0 -1.98374214092E+01 -1.76868220854E+01 -7.32279067544E+00  2.75675575074E+01  0.00000000000E+00  0.0000E+00  9.0
        3    1    4    4  504    0  1.67192114062E+01  7.71340387327E+01  2.06675379689E+02  2.21232693179E+02  0.00000000000E+00  0.0000E+00  9.0
       -4    1    4    4    0  504 -2.23922971229E+01  2.70232682539E+00  1.30902742946E+01  2.60848202066E+01  5.87386917370E-01  0.0000E+00  9.0
</event>
<event>
 8    1   5.1859766E+00   5.0000000E+02  -1.0000000E+00   9.3490000E-02
       11   -1    0    0    0    0  0.00000000000E+00  0.00000000000E+00  2.49999997080E+02  2.49999997080E+02  0.00000000000E+00  0.0000E+00  9.0
      -11   -1    0    0    0    0  0.00000000000E+00  0.00000000000E+00 -2.50000000000E+02  2.50000000000E+02  0.00000000000E+00  0.0000E+00  9.0
       24    2    1    2    0    0  4.05885468332E+01  1.63875528319E+01 -2.32298829324E+02  2.50114583037E+02  8.17225582134E+01  2.7448E-14  9.0
      -24    2    1    2    0    0 -4.05885468332E+01 -1.63875528319E+01  2.32298826404E+02  2.49885414037E+02  8.10184755341E+01  1.6624E-14  9.0
       -1    1    3    3    0  500  3.46271748161E+01  4.86363849756E+01 -1.57796462117E+02  1.68713552022E+02  0.00000000000E+00  0.0000E+00  9.0
        2    1    3    3  500    0  5.96137201711E+00 -3.22488321437E+01 -7.45023672071E+01  8.14010310157E+01  0.00000000000E+00  0.0000E+00  9.0
        3    1    4    4  504    0 -4.63022392083E+01  2.10727065997E+01  1.64823238382E+02  1.72495380315E+02  0.00000000000E+00  0.0000E+00  9.0
       -4    1    4    4    0  504  5.71369237509E+00 -3.74602594315E+01  6.74755880217E+01  7.73900337220E+01  5.87386917370E-01  0.0000E+00  9.0
</event>
<event>
 8    1   5.1859766E+00   4.9980000E+02  -1.0000000E+00   9.3500000E-02
       11   -1    0    0    0    0  0.00000000000E+00  0.00000000000E+00  2.49795782000E+02  2.49795782000E+02  0.00000000000E+00  0.0000E+00  9.0
      -11   -1    0    0    0    0  0.00000000000E+00  0.00000000000E+00 -2.49997403270E+02  2.49997403270E+02  0.00000000000E+00  0.0000E+00  9.0
       24    2    1    2    0    0 -9.14609081345E+00  1.01076041969E+02 -2.14022002587E+02  2.49947114050E+02  7.98005325393E+01  1.6101E-13  9.0
      -24    2    1    2    0    0  9.14609081345E+00 -1.01076041969E+02  2.13820381327E+02  2.49846071216E+02  8.00242875264E+01  2.0101E-14  9.0
       -3    1    3    3    0  500 -2.95003864049E+01  5.96388929261E+01 -6.15544517949E+01  9.06422687451E+01  0.00000000000E+00  0.0000E+00  9.0
        4    1    3    3  500    0  2.03542955915E+01  4.14371490425E+01 -1.52467550792E+02  1.59304845305E+02  5.87386917370E-01  0.0000E+00  9.0
        1    1    4    4  504    0 -2.43904794794E+00  1.30545598910E+01  3.45345137427E+01  3.70000422741E+01  0.00000000000E+00  0.0000E+00  9.0
       -2    1    4    4    0  504  1.15851387614E+01 -1.14130601860E+02  1.79285867584E+02  2.12846028942E+02  0.00000000000E+00  0.0000E+00  9.0
</event>
<event>
 8    1   5.1859766E+00   3.8870000E+02  -1.0000000E+00   9.6360000E-02
       11   -1    0    0    0    0  0.00000000000E+00  0.00000000000E+00  1.51118087690E+02  1.51118087690E+02  0.00000000000E+00  0.0000E+00  9.0
      -11   -1    0    0    0    0  0.00000000000E+00  0.00000000000E+00 -2.49999552290E+02  2.49999552290E+02  0.00000000000E+00  0.0000E+00  9.0
       24    2    1    2    0    0 -2.40164789887E+00  1.49117606441E+01 -2.30842288028E+02  2.45152588858E+02  8.11387784212E+01  2.7703E-14  9.0
      -24    2    1    2    0    0  2.40164789887E+00 -1.49117606441E+01  1.31960823438E+02  1.55965051117E+02  8.17515120933E+01  1.4209E-13  9.0
       -3    1    3    3    0  500 -4.68698268855E+00  4.28694893244E+01 -1.94589119209E+02  1.99310527159E+02  0.00000000000E+00  0.0000E+00  9.0
        4    1    3    3  500    0  2.28533478968E+00 -2.79577286802E+01 -3.62531688188E+01  4.58420616995E+01  5.87386917370E-01  0.0000E+00  9.0
        3    1    4    4  504    0  1.05047355083E+01  1.40203083985E+01  1.23512772226E+02  1.24749041754E+02  0.00000000000E+00  0.0000E+00  9.0
       -4    1    4    4    0  504 -8.10308760946E+00 -2.89320690426E+01  8.44805121199E+00  3.12160093632E+01  5.87386917370E-01  0.0000E+00  9.0
</event>
<event>
 8    1   5.1859766E+00   1.8790000E+02  -1.0000000E+00   1.0580000E-01
       11   -1    0    0    0    0  0.00000000000E+00  0.00000000000E+00  2.49636007320E+02  2.49636007320E+02  0.00000000000E+00  0.0000E+00  9.0
      -11   -1    0    0    0    0  0.00000000000E+00  0.00000000000E+00 -3.53754189530E+01  3.53754189530E+01  0.00000000000E+00  0.0000E+00  9.0
       24    2    1    2    0    0  5.03543019270E+01  1.40816488625E+01  5.56074764407E+01  9.97413508207E+01  6.42051171651E+01  5.7597E-14  9.0
      -24    2    1    2    0    0 -5.03543019270E+01 -1.40816488625E+01  1.58653111931E+02  1.85270075456E+02  8.01270389871E+01  3.6345E-14  9.0
       -3    1    3    3    0  500  5.41208415963E+01  7.03362335164E+00  1.26234820779E+01  5.60168693548E+01  0.00000000000E+00  0.0000E+00  9.0
        4    1    3    3  500    0 -3.76653966930E+00  7.04802551082E+00  4.29839943629E+01  4.37244814659E+01  5.87386917370E-01  0.0000E+00  9.0
        3    1    4    4  504    0 -1.52577757489E+01  2.85471208670E+01  9.81788557021E+01  1.03377103546E+02  0.00000000000E+00  0.0000E+00  9.0
       -4    1    4    4    0  504 -3.50965261780E+01 -4.26287697295E+01  6.04742562291E+01  8.18929719101E+01  5.87386917370E-01  0.0000E+00  9.0
</event>
<event>
 8    1   5.1859766E+00   1.7750000E+02  -1.0000000E+00   1.0660000E-01
       11   -1    0    0    0    0  0.00000000000E+00  0.00000000000E+00  2.49999484710E+02  2.49999484710E+02  0.00000000000E+00  0.0000E+00  9.0
      -11   -1    0    0    0    0  0.00000000000E+00  0.00000000000E+00 -3.14952476530E+01  3.14952476530E+01  0.00000000000E+00  0.0000E+00  9.0
       24    2    1    2    0    0  1.58231512576E+01  2.78588655873E+01  6.37594701031E+01  1.05263102042E+02  7.73858004820E+01  1.2120E-13  9.0
      -24    2    1    2    0    0 -1.58231512576E+01 -2.78588655873E+01  1.54744766961E+02  1.76231630327E+02  7.80074106632E+01  3.0937E-15  9.0
       -1    1    3    3    0  500 -2.98112774587E+01  1.23004718771E+01  4.03869851254E+01  5.16829027788E+01  0.00000000000E+00  0.0000E+00  9.0
        2    1    3    3  500    0  4.56344287163E+01  1.55583937101E+01  2.33724849777E+01  5.35801992637E+01  0.00000000000E+00  0.0000E+00  9.0
        1    1    4    4  504    0 -2.68873062304E+01 -4.11841120566E+01  1.50592717890E+02  1.58421037125E+02  0.00000000000E+00  0.0000E+00  9.0
       -2    1    4    4    0  504  1.10641549728E+01  1.33252464693E+01  4.15204907114E+00  1.78105932023E+01  0.00000000000E+00  0.0000E+00  9.0
</event>
<event>
 8    1   5.1859766E+00   3.4970000E+02  -1.0000000E+00   9.7620000E-02
       11   -1    0    0    0    0  0.00000000000E+00  0.00000000000E+00  2.42901274070E+02  2.42901274070E+02  0.00000000000E+00  0.0000E+00  9.0
      -11   -1    0    0    0    0  0.00000000000E+00  0.00000000000E+00 -1.25855622970E+02  1.25855622970E+02  0.00000000000E+00  0.0000E+00  9.0
       24    2    1    2    0    0  1.20317306016E+02 -1.18619797671E+01 -4.34480424828E+01  1.51921672356E+02  8.10894656838E+01  5.0706E-15  9.0
      -24    2    1    2    0    0 -1.20317306016E+02  1.18619797671E+01  1.60493693575E+02  2.16835224684E+02  8.15004803381E+01  3.3806E-15  9.0
       -1    1    3    3    0  500  3.64065283939E+01  3.30332246024E+01 -2.43448934607E+01  5.48571150804E+01  0.00000000000E+00  0.0000E+00  9.0
        2    1    3    3  500    0  8.39107776223E+01 -4.48952043695E+01 -1.91031490221E+01  9.70645572756E+01  0.00000000000E+00  0.0000E+00  9.0
        3    1    4    4  504    0 -3.89379969587E+01  4.34878263248E+01  5.99783295575E+01  8.36944362674E+01  0.00000000000E+00  0.0000E+00  9.0
       -4    1    4    4    0  504 -8.13793090575E+01 -3.16258465578E+01  1.00515364017E+02  1.33140788416E+02  5.87386917370E-01  0.0000E+00  9.0
</event>
<event>
 8    1   5.1859766E+00   4.9840000E+02  -1.0000000E+00   9.3530000E-02
       11   -1    0    0    0    0  0.00000000000E+00  0.00000000000E+00  2.48353117670E+02  2.48353117670E+02  0.00000000000E+00  0.0000E+00  9.0
      -11   -1    0    0    0    0  0.00000000000E+00  0.00000000000E+00 -2.50000000000E+02  2.50000000000E+02  0.00000000000E+00  0.0000E+00  9.0
       24    2    1    2    0    0  2.55590936955E+01 -5.82357091426E+00 -2.34923237785E+02  2.49710566457E+02  8.04938388974E+01  3.8836E-14  9.0
      -24    2    1    2    0    0 -2.55590936955E+01  5.82357091426E+00  2.33276355445E+02  2.48642551208E+02  8.19638884693E+01  2.7115E-14  9.0
       -3    1    3    3    0  500  3.41433416125E+01 -3.38367464280E+01 -9.18638587508E+01  1.03680575470E+02  0.00000000000E+00  0.0000E+00  9.0
        4    1    3    3  500    0 -8.58424791695E+00  2.80131755137E+01 -1.43059379034E+02  1.46029990987E+02  5.87386917370E-01  0.0000E+00  9.0
        1    1    4    4  504    0 -3.82986789455E+01  3.53073129438E+01  1.18220057129E+02  1.29187371921E+02  0.00000000000E+00  0.0000E+00  9.0
       -2    1    4    4    0  504  1.27395852500E+01 -2.94837420295E+01  1.15056298316E+02  1.19455179287E+02  0.00000000000E+00  0.0000E+00  9.0
</event>
<event>
 8    1   5.1859766E+00   1.8900000E+02  -1.0000000E+00   1.0570000E-01
       11   -1    0    0    0    0  0.00000000000E+00  0.00000000000E+00  2.49999952160E+02  2.49999952160E+02  0.00000000000E+00  0.0000E+00  9.0
      -11   -1    0    0    0    0  0.00000000000E+00  0.00000000000E+00 -3.57248013130E+01  3.57248013130E+01  0.00000000000E+00  0.0000E+00  9.0
       24    2    1    2    0    0 -5.80480517594E+00 -2.74322188285E+00  2.90744190169E+01  8.35575051195E+01  7.80724906173E+01  3.2039E-14  9.0
      -24    2    1    2    0    0  5.80480517594E+00  2.74322188285E+00  1.85200731828E+02  2.02167248352E+02  8.08149998893E+01  1.1940E-13  9.0
       -1    1    3    3    0  500 -2.69111350289E+01 -2.13406115242E+01 -9.66692154411E+00  3.56802502922E+01  0.00000000000E+00  0.0000E+00  9.0
        2    1    3    3  500    0  2.11063298530E+01  1.85973896414E+01  3.87413405611E+01  4.78772548273E+01  0.00000000000E+00  0.0000E+00  9.0
        1    1    4    4  504    0  2.46286567442E+01 -1.72862910853E+01  2.35866231459E+01  3.82323865844E+01  0.00000000000E+00  0.0000E+00  9.0
       -2    1    4    4    0  504 -1.88238515683E+01  2.00295129682E+01  1.61614108682E+02  1.63934861767E+02  0.00000000000E+00  0.0000E+00  9.0
</event>
<event>
 8    1   5.1859766E+00   4.7520000E+02  -1.0000000E+00   9.4060000E-02
       11   -1    0    0    0    0  0.00000000000E+00  0.00000000000E+00  2.28511464410E+02  2.28511464410E+02  0.00000000000E+00  0.0000E+00  9.0
      -11   -1    0    0    0    0  0.00000000000E+00  0.00000000000E+00 -2.47051631950E+02  2.47051631950E+02  0.00000000000E+00  0.0000E+00  9.0
       24    2    1    2    0    0  1.06845474687E+02 -1.19312710191E+01 -2.06836715006E+02  2.44416333489E+02  7.34820162532E+01  2.0169E-13  9.0
      -24    2    1    2    0    0 -1.06845474687E+02  1.19312710191E+01  1.88296547456E+02  2.31146762878E+02  8.00932301503E+01  1.2413E-14  9.0
       -1    1    3    3    0  500 -1.11903389037E+01 -4.01229964294E+00 -2.05282431404E+01  2.37219518513E+01  0.00000000000E+00  0.0000E+00  9.0
        2    1    3    3  500    0  1.18035813590E+02 -7.91897137621E+00 -1.86308471865E+02  2.20694381638E+02  0.00000000000E+00  0.0000E+00  9.0
       13    1    4    4    0    0 -4.52032672061E+01  3.68123961331E+01  1.31005530966E+02  1.43390892986E+02  1.05700000000E-01  0.0000E+00  9.0
      -14    1    4    4    0    0 -6.16422074805E+01 -2.48811251139E+01  5.72910164900E+01  8.77558698918E+01  0.00000000000E+00  0.0000E+00  9.0
</event>
<event>
 8    1   5.1859766E+00   4.9200000E+02  -1.0000000E+00   9.3670000E-02
       11   -1    0    0    0    0  0.00000000000E+00  0.00000000000E+00  2.49921652220E+02  2.49921652220E+02  0.00000000000E+00  0.0000E+00  9.0
      -11   -1    0    0    0    0  0.00000000000E+00  0.00000000000E+00 -2.42094405360E+02  2.42094405360E+02  0.00000000000E+00  0.0000E+00  9.0
       24    2    1    2    0    0  2.31465988905E+01  1.09735161277E+01 -2.27005955723E+02  2.42303782753E+02  8.07665531407E+01  1.2376E-13  9.0
      -24    2    1    2    0    0 -2.31465988905E+01 -1.09735161277E+01  2.34833202583E+02  2.49712274831E+02  8.09530979625E+01  2.4052E-14  9.0
       -3    1    3    3    0  500  5.74011314215E-01 -3.06644803888E+01 -4.66289417457E+01  5.58112717543E+01  0.00000000000E+00  0.0000E+00  9.0
        4    1    3    3  500    0  2.25725875762E+01  4.16379965165E+01 -1.80377013977E+02  1.86492510998E+02  5.87386917370E-01  0.0000E+00  9.0
        3    1    4    4  504    0 -1.75412202823E+01  4.80088953590E+00  2.32013984129E+02  2.32725657762E+02  0.00000000000E+00  0.0000E+00  9.0
       -4    1    4    4    0  504 -5.60537860811E+00 -1.57744056636E+01  2.81921845384E+00  1.69866170694E+01  5.87386917370E-01  0.0000E+00  9.0
</event>
<event>
 8    1   5.1859766E+00   5.0000000E+02  -1.0000000E+00   9.3490000E-02
       11   -1    0    0    0    0  0.00000000000E+00  0.00000000000E+00  2.49999922160E+02  2.49999922160E+02  0.00000000000E+00  0.0000E+00  9.0
      -11   -1    0    0    0    0  0.00000000000E+00  0.00000000000E+00 -2.49999998610E+02  2.49999998610E+02  0.00000000000E+00  0.0000E+00  9.0
       24    2    1    2    0    0 -5.25850954853E+01  1.06946577086E+02 -1.98629483464E+02  2.45520941102E+02  8.13885630842E+01  1.6187E-13  9.0
      -24    2    1    2    0    0  5.25850954853E+01 -1.06946577086E+02  1.98629407004E+02  2.54478979671E+02  1.05371472183E+02  3.4379E-14  9.0
       -3    1    3    3    0  500 -2.21442690671E+00 -5.26400443846E+00 -5.96787054484E+01  5.99513245329E+01  0.00000000000E+00  0.0000E+00  9.0
        4    1    3    3  500    0 -5.03706685786E+01  1.12210581525E+02 -1.38950778015E+02  1.85569616569E+02  5.87386917370E-01  0.0000E+00  9.0
        3    1    4    4  504    0  1.64350098853E+01 -4.45991363598E+00  1.17835909975E+02  1.19060077521E+02  0.00000000000E+00  0.0000E+00  9.0
       -4    1    4    4    0  504  3.61500856000E+01 -1.02486663450E+02  8.07934970281E+01  1.35418902150E+02  5.87386917370E-01  0.0000E+00  9.0
</event>
<event>
 8    1   5.1859766E+00   4.9970000E+02  -1.0000000E+00   9.3500000E-02
       11   -1    0    0    0    0  0.00000000000E+00  0.00000000000E+00  2.49656739370E+02  2.49656739370E+02  0.00000000000E+00  0.0000E+00  9.0
      -11   -1    0    0    0    0  0.00000000000E+00  0.00000000000E+00 -2.50000000000E+02  2.50000000000E+02  0.00000000000E+00  0.0000E+00  9.0
       24    2    1    2    0    0 -5.84724326836E+01  4.60030251426E+01 -2.24406580156E+02  2.49574434044E+02  7.99611230848E+01  2.0180E-13  9.0
      -24    2    1    2    0    0  5.84724326836E+01 -4.60030251426E+01  2.24063319526E+02  2.50082305326E+02  8.24711135746E+01  3.9081E-14  9.0
       -3    1    3    3    0  500 -5.09590974338E+01 -8.69326389234E+00 -8.31392970764E+01  9.79006903282E+01  0.00000000000E+00  0.0000E+00  9.0
        4    1    3    3  500    0 -7.51333524975E+00  5.46962890349E+01 -1.41267283079E+02  1.51673743716E+02  5.87386917370E-01  0.0000E+00  9.0
        3    1    4    4  504    0  1.55586371236E+01  1.97961384029E+01  1.00929548561E+02  1.04022747789E+02  0.00000000000E+00  0.0000E+00  9.0
       -4    1    4    4    0  504  4.29137955600E+01 -6.57991635455E+01  1.23133770964E+02  1.46059557537E+02  5.87386917370E-01  0.0000E+00  9.0
</event>
<event>
 8    1   5.1859766E+00   4.9940000E+02  -1.0000000E+00   9.3500000E-02
       11   -1    0    0    0    0  0.00000000000E+00  0.00000000000E+00  2.49389745040E+02  2.49389745040E+02  0.00000000000E+00  0.0000E+00  9.0
      -11   -1    0    0    0    0  0.00000000000E+00  0.00000000000E+00 -2.49999998440E+02  2.49999998440E+02  0.00000000000E+00  0.0000E+00  9.0
       24    2    1    2    0    0 -2.14945441786E+02  3.83552676103E+01 -8.72459945928E+01  2.50934863332E+02  8.76571307141E+01  6.1901E-14  9.0
      -24    2    1    2    0    0  2.14945441786E+02 -3.83552676103E+01  8.66357411958E+01  2.48454880143E+02  8.09407580662E+01  1.2429E-15  9.0
       -1    1    3    3    0  500 -7.58030818314E+01  3.22510814061E+01  7.14279647007E+00  8.26877198163E+01  0.00000000000E+00  0.0000E+00  9.0
        2    1    3    3  500    0 -1.39142359954E+02  6.10418620414E+00 -9.43887910629E+01  1.68247143515E+02  0.00000000000E+00  0.0000E+00  9.0
        1    1    4    4  504    0  1.21364939805E+02 -1.43086990219E+01  5.57211353313E+00  1.22332481094E+02  0.00000000000E+00  0.0000E+00  9.0
       -2    1    4    4    0  504  9.35805019810E+01 -2.40465685884E+01  8.10636276627E+01  1.26122399048E+02  0.00000000000E+00  0.0000E+00  9.0
</event>
<event>
 8    1   5.1859766E+00   4.7760000E+02  -1.0000000E+00   9.4000000E-02
       11   -1    0    0    0    0  0.00000000000E+00  0.00000000000E+00  2.39062100520E+02  2.39062100520E+02  0.00000000000E+00  0.0000E+00  9.0
      -11   -1    0    0    0    0  0.00000000000E+00  0.00000000000E+00 -2.38583133360E+02  2.38583133360E+02  0.00000000000E+00  0.0000E+00  9.0
       24    2    1    2    0    0 -7.27095033699E+01 -1.17458717250E+02 -1.78679429903E+02  2.38923977464E+02  7.79429676010E+01  3.7150E-14  9.0
      -24    2    1    2    0    0  7.27095033699E+01  1.17458717250E+02  1.79158397073E+02  2.38721256412E+02  7.62029191243E+01  2.0284E-13  9.0
       -1    1    3    3    0  500 -2.14401011863E+01 -9.69527421735E+01 -8.75994377659E+01  1.32412890803E+02  0.00000000000E+00  0.0000E+00  9.0
        2    1    3    3  500    0 -5.12694021836E+01 -2.05059750769E+01 -9.10799921367E+01  1.06511086661E+02  0.00000000000E+00  0.0000E+00  9.0
       13    1    4    4    0    0  1.42042612065E+01  1.06827300891E+01 -4.53377186047E+00  1.83425194112E+01  1.05700000000E-01  0.0000E+00  9.0
      -14    1    4    4    0    0  5.85052421634E+01  1.06775987161E+02  1.83692168933E+02  2.20378737001E+02  0.00000000000E+00  0.0000E+00  9.0
</event>
<event>
 8    1   5.1859766E+00   4.9970000E+02  -1.0000000E+00   9.3500000E-02
       11   -1    0    0    0    0  0.00000000000E+00  0.00000000000E+00  2.49716100430E+02  2.49716100430E+02  0.00000000000E+00  0.0000E+00  9.0
      -11   -1    0    0    0    0  0.00000000000E+00  0.00000000000E+00 -2.50000000000E+02  2.50000000000E+02  0.00000000000E+00  0.0000E+00  9.0
       24    2    1    2    0    0  5.95760495738E+00 -1.15764762882E+00 -2.36850300201E+02  2.50011484942E+02  7.98175713280E+01  1.7271E-15  9.0
      -24    2    1    2    0    0 -5.95760495738E+00  1.15764762882E+00  2.36566400631E+02  2.49704615488E+02  7.96988072929E+01  2.2067E-13  9.0
       -3    1    3    3    0  500  3.13537112615E+01 -2.87517008735E+01 -1.26395227015E+02  1.33362172017E+02  0.00000000000E+00  0.0000E+00  9.0
        4    1    3    3  500    0 -2.53961063042E+01  2.75940532447E+01 -1.10455073186E+02  1.16649312924E+02  5.87386917370E-01  0.0000E+00  9.0
        1    1    4    4  504    0  3.33538514926E+01 -4.14318522998E+00  6.03426510410E+01  6.90715638153E+01  0.00000000000E+00  0.0000E+00  9.0
       -2    1    4    4    0  504 -3.93114564500E+01  5.30083285881E+00  1.76223749590E+02  1.80633051673E+02  0.00000000000E+00  0.0000E+00  9.0
</event>
<event>
 8    1   5.1859766E+00   2.3890000E+02  -1.0000000E+00   1.0250000E-01
       11   -1    0    0    0    0  0.00000000000E+00  0.00000000000E+00  5.71828655760E+01  5.71828655760E+01  0.00000000000E+00  0.0000E+00  9.0
      -11   -1    0    0    0    0  0.00000000000E+00  0.00000000000E+00 -2.49621415370E+02  2.49621415370E+02  0.00000000000E+00  0.0000E+00  9.0
       24    2    1    2    0    0 -5.54752678862E+01  1.81765236015E+01 -1.81384406631E+02  2.06090052306E+02  7.85169748099E+01  1.6590E-13  9.0
      -24    2    1    2    0    0  5.54752678862E+01 -1.81765236015E+01 -1.10541431658E+01  1.00714228642E+02  8.13220167757E+01  3.0016E-14  9.0
       -3    1    3    3    0  500 -2.70512909825E+01  4.75513800719E+01 -8.14463366634E+01  9.81142795237E+01  0.00000000000E+00  0.0000E+00  9.0
        4    1    3    3  500    0 -2.84239769037E+01 -2.93748564704E+01 -9.99380699678E+01  1.07975772782E+02  5.87386917370E-01  0.0000E+00  9.0
       13    1    4    4    0    0  2.94772904344E+00  2.90673082885E+01 -6.40852993711E-02  2.92166527356E+01  1.05700000000E-01  0.0000E+00  9.0
      -14    1    4    4    0    0  5.25275388427E+01 -4.72438318901E+01 -1.09900578664E+01  7.14975759060E+01  0.00000000000E+00  0.0000E+00  9.0
</event>
<event>
 8    1   5.1859766E+00   5.0000000E+02  -1.0000000E+00   9.3490000E-02
       11   -1    0    0    0    0  0.00000000000E+00  0.00000000000E+00  2.49998973740E+02  2.49998973740E+02  0.00000000000E+00  0.0000E+00  9.0
      -11   -1    0    0    0    0  0.00000000000E+00  0.00000000000E+00 -2.50000000000E+02  2.50000000000E+02  0.00000000000E+00  0.0000E+00  9.0
       24    2    1    2    0    0 -7.19513881159E+00  8.89935039204E+00 -2.36621587349E+02  2.49933271053E+02  7.96611318022E+01  1.6825E-13  9.0
      -24    2    1    2    0    0  7.19513881159E+00 -8.89935039204E+00  2.36620561089E+02  2.50065702687E+02  8.00786942367E+01  5.3973E-14  9.0
       -1    1    3    3    0  500 -2.28939072787E+01  1.23136485048E+01 -2.02127191031E+01  3.29288770462E+01  0.00000000000E+00  0.0000E+00  9.0
        2    1    3    3  500    0  1.56987684671E+01 -3.41429811277E+00 -2.16408868246E+02  2.17004394007E+02  0.00000000000E+00  0.0000E+00  9.0
       13    1    4    4    0    0 -1.24190895780E+01  2.32707758308E+01  2.96138174317E+01  3.96579392944E+01  1.05700000000E-01  0.0000E+00  9.0
      -14    1    4    4    0    0  1.96142283896E+01 -3.21701262228E+01  2.07006743657E+02  2.10407763393E+02  0.00000000000E+00  0.0000E+00  9.0
</event>
<event>
 8    1   5.1859766E+00   4.9230000E+02  -1.0000000E+00   9.3660000E-02
       11   -1    0    0    0    0  0.00000000000E+00  0.00000000000E+00  2.43454212630E+02  2.43454212630E+02  0.00000000000E+00  0.0000E+00  9.0
      -11   -1    0    0    0    0  0.00000000000E+00  0.00000000000E+00 -2.48867419060E+02  2.48867419060E+02  0.00000000000E+00  0.0000E+00  9.0
       24    2    1    2    0    0 -2.25564240535E+00  2.03778814752E+02 -1.17156593209E+02  2.48173425779E+02  7.95832184937E+01  2.6166E-13  9.0
      -24    2    1    2    0    0  2.25564240535E+00 -2.03778814752E+02  1.11743386779E+02  2.44148205902E+02  7.47721117239E+01  1.8973E-13  9.0
       -3    1    3    3    0  500 -2.64520622652E+00  4.31900323053E+01  8.70532142982E+00  4.41379499718E+01  0.00000000000E+00  0.0000E+00  9.0
        4    1    3    3  500    0  3.89563821171E-01  1.60588782447E+02 -1.25861914639E+02  2.04035475807E+02  5.87386917370E-01  0.0000E+00  9.0
        1    1    4    4  504    0  2.90167380369E+01 -9.81347509994E+01  2.62851485028E+01  1.05656563790E+02  0.00000000000E+00  0.0000E+00  9.0
       -2    1    4    4    0  504 -2.67610956315E+01 -1.05644063753E+02  8.54582382761E+01  1.38491642112E+02  0.00000000000E+00  0.0000E+00  9.0
</event>
<event>
 8    1   5.1859766E+00   4.1760000E+02  -1.0000000E+00   9.5530000E-02
       11   -1    0    0    0    0  0.00000000000E+00  0.00000000000E+00  2.49897299370E+02  2.49897299370E+02  0.00000000000E+00  0.0000E+00  9.0
      -11   -1    0    0    0    0  0.00000000000E+00  0.00000000000E+00 -1.74478367360E+02  1.74478367360E+02  0.00000000000E+00  0.0000E+00  9.0
       24    2    1    2    0    0 -3.16546594512E+01  1.13941394214E+00 -1.54893500247E+02  1.79063763065E+02  8.40744853998E+01  1.1021E-13  9.0
      -24    2    1    2    0    0  3.16546594512E+01 -1.13941394214E+00  2.30312432257E+02  2.45311903667E+02  7.82994118727E+01  4.9812E-14  9.0
       -3    1    3    3    0  500  4.40151459650E+00 -1.37328423337E+01 -1.34075401182E+02  1.34848720763E+02  0.00000000000E+00  0.0000E+00  9.0
        4    1    3    3  500    0 -3.60561740477E+01  1.48722562759E+01 -2.08180990643E+01  4.42150423016E+01  5.87386917370E-01  0.0000E+00  9.0
        1    1    4    4  504    0 -1.44382012895E+01  1.29657322012E+01  1.52845730377E+02  1.54072674938E+02  0.00000000000E+00  0.0000E+00  9.0
       -2    1    4    4    0  504  4.60928607407E+01 -1.41051461434E+01  7.74667018795E+01  9.12392287291E+01  0.00000000000E+00  0.0000E+00  9.0
</event>
<event>
 8    1   5.1859766E+00   4.9000000E+02  -1.0000000E+00   9.3710000E-02
       11   -1    0    0    0    0  0.00000000000E+00  0.00000000000E+00  2.40089128360E+02  2.40089128360E+02  0.00000000000E+00  0.0000E+00  9.0
      -11   -1    0    0    0    0  0.00000000000E+00  0.00000000000E+00 -2.50000000000E+02  2.50000000000E+02  0.00000000000E+00  0.0000E+00  9.0
       24    2    1    2    0    0 -9.94564190371E+00 -1.00384628516E+01 -2.35793531758E+02  2.49923518001E+02  8.16301947920E+01  4.3852E-14  9.0
      -24    2    1    2    0    0  9.94564190371E+00  1.00384628516E+01  2.25882660118E+02  2.40165610366E+02  8.03545750506E+01  4.3621E-15  9.0
       -3    1    3    3    0  500 -1.45383738374E+01 -4.48010615718E+01 -1.50615444982E+02  1.57808465232E+02  0.00000000000E+00  0.0000E+00  9.0
        4    1    3    3  500    0  4.59273193365E+00  3.47625987202E+01 -8.51780867755E+01  9.21150527684E+01  5.87386917370E-01  0.0000E+00  9.0
        3    1    4    4  504    0  1.38740077322E+00 -3.20151491565E+01  5.21404048419E+01  6.12006247803E+01  0.00000000000E+00  0.0000E+00  9.0
       -4    1    4    4    0  504  8.55824113049E+00  4.20536120080E+01  1.73742255276E+02  1.78964985586E+02  5.87386917370E-01  0.0000E+00  9.0
</event>
<event>
 8    1   5.1859766E+00   4.2540000E+02  -1.0000000E+00   9.5310000E-02
       11   -1    0    0    0    0  0.00000000000E+00  0.00000000000E+00  2.50000000000E+02  2.50000000000E+02  0.00000000000E+00  0.0000E+00  9.0
      -11   -1    0    0    0    0  0.00000000000E+00  0.00000000000E+00 -1.80962473110E+02  1.80962473110E+02  0.00000000000E+00  0.0000E+00  9.0
       24    2    1    2    0    0 -1.87187784065E+02 -2.62145491384E+00 -1.91836951694E+01  2.08594817738E+02  8.99869173710E+01  1.1235E-13  9.0
      -24    2    1    2    0    0  1.87187784065E+02  2.62145491384E+00  8.82212220584E+01  2.22367655378E+02  8.13526373762E+01  2.4364E-13  9.0
       -1    1    3    3    0  500 -1.48681338303E+02  6.62678039618E+00 -5.14932765706E+01  1.57485275852E+02  0.00000000000E+00  0.0000E+00  9.0
        2    1    3    3  500    0 -3.85064457615E+01 -9.24823531002E+00  3.23095814013E+01  5.11095418866E+01  0.00000000000E+00  0.0000E+00  9.0
        1    1    4    4  504    0  6.35190009057E+01 -2.38560087097E+01  6.46473310064E+01  9.37179280281E+01  0.00000000000E+00  0.0000E+00  9.0
       -2    1    4    4    0  504  1.23668783159E+02  2.64774636236E+01  2.35738910519E+01  1.28649727350E+02  0.00000000000E+00  0.0000E+00  9.0
</event>
<event>
 8    1   5.1859766E+00   4.9910000E+02  -1.0000000E+00   9.3510000E-02
       11   -1    0    0    0    0  0.00000000000E+00  0.00000000000E+00  2.50000000000E+02  2.50000000000E+02  0.00000000000E+00  0.0000E+00  9.0
      -11   -1    0    0    0    0  0.00000000000E+00  0.00000000000E+00 -2.49149159120E+02  2.49149159120E+02  0.00000000000E+00  0.0000E+00  9.0
       24    2    1    2    0    0  4.74894752524E+01  1.53350466040E+02 -1.64997095221E+02  2.51905430240E+02  1.02277508078E+02  3.8469E-14  9.0
      -24    2    1    2    0    0 -4.74894752524E+01 -1.53350466040E+02  1.65847936101E+02  2.47243728886E+02  8.86132488415E+01  8.8758E-15  9.0
      -13    1    3    3    0    0  2.70262559128E+01  1.44261277982E+02 -1.74120351911E+02  2.27727123891E+02  1.05700000000E-01  0.0000E+00  9.0
       14    1    3    3    0    0  2.04632193396E+01  9.08918805744E+00  9.12325668951E+00  2.41783063490E+01  0.00000000000E+00  0.0000E+00  9.0
        3    1    4    4  500    0 -4.10111886603E+01 -1.50792669999E+02  1.75715361559E+02  2.35151515429E+02  0.00000000000E+00  0.0000E+00  9.0
       -4    1    4    4    0  500 -6.47828659214E+00 -2.55779604060E+00 -9.86742545740E+00  1.20922134576E+01  5.87386917370E-01  0.0000E+00  9.0
</event>
<event>
 8    1   5.1859766E+00   4.4910000E+02  -1.0000000E+00   9.4690000E-02
       11   -1    0    0    0    0  0.00000000000E+00  0.00000000000E+00  2.35577885170E+02  2.35577885170E+02  0.00000000000E+00  0.0000E+00  9.0
      -11   -1    0    0    0    0  0.00000000000E+00  0.00000000000E+00 -2.14010789910E+02  2.14010789910E+02  0.00000000000E+00  0.0000E+00  9.0
       24    2    1    2    0    0  1.29905084068E+02  4.38196810790E+01 -1.47851258654E+02  2.16921605828E+02  7.99968316445E+01  2.2926E-14  9.0
      -24    2    1    2    0    0 -1.29905084068E+02 -4.38196810790E+01  1.69418353904E+02  2.32667069250E+02  8.14609793549E+01  3.0343E-14  9.0
       -1    1    3    3    0  500  1.13990577531E+02  6.46902055451E+01 -1.11454715355E+02  1.72048911750E+02  0.00000000000E+00  0.0000E+00  9.0
        2    1    3    3  500    0  1.59145065365E+01 -2.08705244661E+01 -3.63965432984E+01  4.48726940785E+01  0.00000000000E+00  0.0000E+00  9.0
        3    1    4    4  504    0 -6.96348142773E+01 -5.18999263531E+01  5.41663780238E+01  1.02355294065E+02  0.00000000000E+00  0.0000E+00  9.0
       -4    1    4    4    0  504 -6.02702697905E+01  8.08024527415E+00  1.15251975880E+02  1.30311775185E+02  5.87386917370E-01  0.0000E+00  9.0
</event>
<event>
 8    1   5.1859766E+00   4.9360000E+02  -1.0000000E+00   9.3630000E-02
       11   -1    0    0    0    0  0.00000000000E+00  0.00000000000E+00  2.50000000000E+02  2.50000000000E+02  0.00000000000E+00  0.0000E+00  9.0
      -11   -1    0    0    0    0  0.00000000000E+00  0.00000000000E+00 -2.43625315150E+02  2.43625315150E+02  0.00000000000E+00  0.0000E+00  9.0
       24    2    1    2    0    0  8.73518278446E+01  3.27919134538E+01 -2.07993573576E+02  2.46839133515E+02  9.46709024449E+01  2.0389E-14  9.0
      -24    2    1    2    0    0 -8.73518278446E+01 -3.27919134538E+01  2.14368258436E+02  2.46786181630E+02  7.90190977096E+01  3.6642E-14  9.0
       -1    1    3    3    0  500 -1.41290113975E+01  2.66455053560E+01 -6.18400639299E+01  6.88026556581E+01  0.00000000000E+00  0.0000E+00  9.0
        2    1    3    3  500    0  1.01480839242E+02  6.14640809776E+00 -1.46153509646E+02  1.78036477857E+02  0.00000000000E+00  0.0000E+00  9.0
        3    1    4    4  504    0 -6.55054235860E+01 -5.24572537129E+01  1.10006402024E+02  1.38362323168E+02  0.00000000000E+00  0.0000E+00  9.0
       -4    1    4    4    0  504 -2.18464042586E+01  1.96653402591E+01  1.04361856412E+02  1.08423858462E+02  5.87386917370E-01  0.0000E+00  9.0
</event>
<event>
 8    1   5.1859766E+00   4.9460000E+02  -1.0000000E+00   9.3610000E-02
       11   -1    0    0    0    0  0.00000000000E+00  0.00000000000E+00  2.49999967000E+02  2.49999967000E+02  0.00000000000E+00  0.0000E+00  9.0
      -11   -1    0    0    0    0  0.00000000000E+00  0.00000000000E+00 -2.44582503110E+02  2.44582503110E+02  0.00000000000E+00  0.0000E+00  9.0
       24    2    1    2    0    0  1.11833618038E+01 -4.80067386790E+01 -2.25437026154E+02  2.44287804706E+02  8.01558745648E+01  7.2417E-14  9.0
      -24    2    1    2    0    0 -1.11833618038E+01  4.80067386790E+01  2.30854490044E+02  2.50294665395E+02  8.32100319194E+01  1.7453E-13  9.0
       -3    1    3    3    0  500  2.72089302377E+01 -5.47631280370E+01 -2.16006304900E+02  2.24495099799E+02  0.00000000000E+00  0.0000E+00  9.0
        4    1    3    3  500    0 -1.60255684339E+01  6.75638935804E+00 -9.43072125335E+00  1.97927049070E+01  5.87386917370E-01  0.0000E+00  9.0
        3    1    4    4  504    0 -2.35750151289E+01  4.16658321907E+01  2.31450606910E+02  2.36349754282E+02  0.00000000000E+00  0.0000E+00  9.0
       -4    1    4    4    0  504  1.23916533251E+01  6.34090648833E+00 -5.96116866294E-01  1.39449111124E+01  5.87386917370E-01  0.0000E+00  9.0
</event>
<event>
 8    1   5.1859766E+00   2.4470000E+02  -1.0000000E+00   1.0210000E-01
       11   -1    0    0    0    0  0.00000000000E+00  0.00000000000E+00  2.45119346450E+02  2.45119346450E+02  0.00000000000E+00  0.0000E+00  9.0
      -11   -1    0    0    0    0  0.00000000000E+00  0.00000000000E+00 -6.10511013790E+01  6.10511013790E+01  0.00000000000E+00  0.0000E+00  9.0
       24    2    1    2    0    0 -6.57760823064E+01 -2.55147053667E+01  1.75208680985E+01  1.08584710572E+02  8.06608043454E+01  1.7150E-13  9.0
      -24    2    1    2    0    0  6.57760823064E+01  2.55147053667E+01  1.66547376979E+02  1.97585737263E+02  7.95273638292E+01  4.1232E-13  9.0
       -3    1    3    3    0  500 -6.44941394469E+01  1.46806658074E+01  4.44761561607E+00  6.62932670504E+01  0.00000000000E+00  0.0000E+00  9.0
        4    1    3    3  500    0 -1.28194285942E+00 -4.01953711741E+01  1.30732524825E+01  4.22914435220E+01  5.87386917370E-01  0.0000E+00  9.0
        1    1    4    4  504    0  2.66446224017E+01  4.79180772687E+01  1.24041829322E+02  1.35618779871E+02  0.00000000000E+00  0.0000E+00  9.0
       -2    1    4    4    0  504  3.91314599046E+01 -2.24033719020E+01  4.25055476576E+01  6.19669573928E+01  0.00000000000E+00  0.0000E+00  9.0
</event>
<event>
 8    1   5.1859766E+00   4.6170000E+02  -1.0000000E+00   9.4380000E-02
       11   -1    0    0    0    0  0.00000000000E+00  0.00000000000E+00  2.50000000000E+02  2.50000000000E+02  0.00000000000E+00  0.0000E+00  9.0
      -11   -1    0    0    0    0  0.00000000000E+00  0.00000000000E+00 -2.13205283410E+02  2.13205283410E+02  0.00000000000E+00  0.0000E+00  9.0
       24    2    1    2    0    0  2.30866922364E+01 -6.73382513298E+00 -1.99824388286E+02  2.15772866991E+02  7.77804873733E+01  1.5287E-14  9.0
      -24    2    1    2    0    0 -2.30866922364E+01  6.73382513298E+00  2.36619104886E+02  2.47432416415E+02  6.82338635599E+01  5.2381E-15  9.0
       -3    1    3    3    0  500  2.21148042625E+01  1.62337493139E+01 -1.87144505313E+01  3.32088819903E+01  0.00000000000E+00  0.0000E+00  9.0
        4    1    3    3  500    0  9.71887973942E-01 -2.29675744469E+01 -1.81109937755E+02  1.82563985000E+02  5.87386917370E-01  0.0000E+00  9.0
        1    1    4    4  504    0 -1.43417282889E+00  5.88536581509E+00  2.20103718153E+02  2.20187059400E+02  0.00000000000E+00  0.0000E+00  9.0
       -2    1    4    4    0  504 -2.16525194075E+01  8.48459317887E-01  1.65153867334E+01  2.72453570147E+01  0.00000000000E+00  0.0000E+00  9.0
</event>
<event>
 8    1   5.1859766E+00   3.6150000E+02  -1.0000000E+00   9.7230000E-02
       11   -1    0    0    0    0  0.00000000000E+00  0.00000000000E+00  1.34692037140E+02  1.34692037140E+02  0.00000000000E+00  0.0000E+00  9.0
      -11   -1    0    0    0    0  0.00000000000E+00  0.00000000000E+00 -2.42491826620E+02  2.42491826620E+02  0.00000000000E+00  0.0000E+00  9.0
       24    2    1    2    0    0 -2.69770647843E+01 -3.48074343618E+00 -2.19077499101E+02  2.37357661072E+02  8.71999487274E+01  7.9393E-16  9.0
      -24    2    1    2    0    0  2.69770647843E+01  3.48074343618E+00  1.11277709621E+02  1.39826202680E+02  8.01795528683E+01  4.1183E-14  9.0
       -3    1    3    3    0  500 -2.79417172930E+01 -4.06486644219E+01 -8.55742188977E+01  9.87724679479E+01  0.00000000000E+00  0.0000E+00  9.0
        4    1    3    3  500    0  9.64652508634E-01  3.71679209858E+01 -1.33503280203E+02  1.38585193124E+02  5.87386917370E-01  0.0000E+00  9.0
        3    1    4    4  504    0 -2.23600810762E+01 -1.98772995348E+01  3.53509989395E+01  4.63116981825E+01  0.00000000000E+00  0.0000E+00  9.0
       -4    1    4    4    0  504  4.93371458605E+01  2.33580429710E+01  7.59267106814E+01  9.35145044974E+01  5.87386917370E-01  0.0000E+00  9.0
</event>
<event>
 8    1   5.1859766E+00   4.9200000E+02  -1.0000000E+00   9.3670000E-02
       11   -1    0    0    0    0  0.00000000000E+00  0.00000000000E+00  2.43125750440E+02  2.43125750440E+02  0.00000000000E+00  0.0000E+00  9.0
      -11   -1    0    0    0    0  0.00000000000E+00  0.00000000000E+00 -2.48908539790E+02  2.48908539790E+02  0.00000000000E+00  0.0000E+00  9.0
       24    2    1    2    0    0 -2.86753097142E+01 -2.44952981178E+01 -2.32437256852E+02  2.48537914641E+02  7.95092675350E+01  5.8361E-14  9.0
      -24    2    1    2    0    0  2.86753097142E+01  2.44952981178E+01  2.26654467502E+02  2.43496375585E+02  8.05974209717E+01  2.2863E-14  9.0
       -1    1    3    3    0  500 -2.13146480438E+01 -3.61759114656E+01 -2.30853616702E+02  2.34641009067E+02  0.00000000000E+00  0.0000E+00  9.0
        2    1    3    3  500    0 -7.36066167034E+00  1.16806133478E+01 -1.58364015039E+00  1.38969055740E+01  0.00000000000E+00  0.0000E+00  9.0
        1    1    4    4  504    0 -5.20168692168E+00  2.02042365456E+01  8.24439781370E+00  2.24329850117E+01  0.00000000000E+00  0.0000E+00  9.0
       -2    1    4    4    0  504  3.38769966359E+01  4.29106157216E+00  2.18410069688E+02  2.21063390573E+02  0.00000000000E+00  0.0000E+00  9.0
</event>
<event>
 8    1   5.1859766E+00   3.3300000E+02  -1.0000000E+00   9.8220000E-02
       11   -1    0    0    0    0  0.00000000000E+00  0.00000000000E+00  1.10921608390E+02  1.10921608390E+02  0.00000000000E+00  0.0000E+00  9.0
      -11   -1    0    0    0    0  0.00000000000E+00  0.00000000000E+00 -2.49932311410E+02  2.49932311410E+02  0.00000000000E+00  0.0000E+00  9.0
       24    2    1    2    0    0 -7.20179310946E+00  3.17046054053E+01 -2.24137895180E+02  2.40308991589E+02  8.03340995762E+01  4.6619E-15  9.0
      -24    2    1    2    0    0  7.20179310946E+00 -3.17046054053E+01  8.51271921664E+01  1.20544928208E+02  7.89138330241E+01  3.3781E-14  9.0
      -13    1    3    3    0    0  7.50703222557E+00  3.65640377474E+01 -2.21465878491E+02  2.24589471920E+02  1.05700000000E-01  0.0000E+00  9.0
       14    1    3    3    0    0 -1.47088253350E+01 -4.85943234210E+00 -2.67201668950E+00  1.57195196686E+01  0.00000000000E+00  0.0000E+00  9.0
        1    1    4    4  500    0 -2.17732655255E+01  1.77092849896E+01  2.81940343663E+01  3.97818732633E+01  0.00000000000E+00  0.0000E+00  9.0
       -2    1    4    4    0  500  2.89750586350E+01 -4.94138903949E+01  5.69331578001E+01  8.07630549444E+01  0.00000000000E+00  0.0000E+00  9.0
</event>
<event>
 8    1   5.1859766E+00   4.9770000E+02  -1.0000000E+00   9.3540000E-02
       11   -1    0    0    0    0  0.00000000000E+00  0.00000000000E+00  2.49999998500E+02  2.49999998500E+02  0.00000000000E+00  0.0000E+00  9.0
      -11   -1    0    0    0    0  0.00000000000E+00  0.00000000000E+00 -2.47752953700E+02  2.47752953700E+02  0.00000000000E+00  0.0000E+00  9.0
       24    2    1    2    0    0 -1.69658034546E+02 -1.39096583422E+02  8.68783259275E+01  2.49136797852E+02  7.99349255465E+01  4.9112E-14  9.0
      -24    2    1    2    0    0  1.69658034546E+02  1.39096583422E+02 -8.46312811265E+01  2.48616154339E+02  8.07206928095E+01  2.0990E-13  9.0
       -1    1    3    3    0  500 -1.17251662959E+02 -9.64671065979E+01  9.79395391075E+01  1.80682064530E+02  0.00000000000E+00  0.0000E+00  9.0
        2    1    3    3  500    0 -5.24063715871E+01 -4.26294768237E+01 -1.10612131800E+01  6.84547333221E+01  0.00000000000E+00  0.0000E+00  9.0
        1    1    4    4  504    0  8.15345667096E+01  1.17298398335E+02 -4.75981760114E+01  1.50573524167E+02  0.00000000000E+00  0.0000E+00  9.0
       -2    1    4    4    0  504  8.81234678367E+01  2.17981850868E+01 -3.70331051151E+01  9.80426301723E+01  0.00000000000E+00  0.0000E+00  9.0
</event>
<event>
 8    1   5.1859766E+00   4.5390000E+02  -1.0000000E+00   9.4570000E-02
       11   -1    0    0    0    0  0.00000000000E+00  0.00000000000E+00  2.13870838620E+02  2.13870838620E+02  0.00000000000E+00  0.0000E+00  9.0
      -11   -1    0    0    0    0  0.00000000000E+00  0.00000000000E+00 -2.40866118640E+02  2.40866118640E+02  0.00000000000E+00  0.0000E+00  9.0
       24    2    1    2    0    0 -2.25213262079E+01 -5.23134269096E+00 -2.26179647179E+02  2.38802729267E+02  7.30406299715E+01  2.8913E-14  9.0
      -24    2    1    2    0    0  2.25213262079E+01  5.23134269096E+00  1.99184367159E+02  2.15934227994E+02  8.01161757583E+01  1.6447E-13  9.0
       -3    1    3    3    0  500  2.40142267505E+01  1.71612290324E+00 -3.92837315558E+01  4.60742849016E+01  0.00000000000E+00  0.0000E+00  9.0
        4    1    3    3  500    0 -4.65355529584E+01 -6.94746559420E+00 -1.86895915623E+02  1.92728444365E+02  5.87386917370E-01  0.0000E+00  9.0
        3    1    4    4  504    0 -1.59313638456E+01 -2.75529569526E+01  9.39589093699E+01  9.92030767708E+01  0.00000000000E+00  0.0000E+00  9.0
       -4    1    4    4    0  504  3.84526900536E+01  3.27842996436E+01  1.05225457789E+02  1.16731151223E+02  5.87386917370E-01  0.0000E+00  9.0
</event>
<event>
 8    1   5.1859766E+00   3.0240000E+02  -1.0000000E+00   9.9410000E-02
       11   -1    0    0    0    0  0.00000000000E+00  0.00000000000E+00  2.25307947680E+02  2.25307947680E+02  0.00000000000E+00  0.0000E+00  9.0
      -11   -1    0    0    0    0  0.00000000000E+00  0.00000000000E+00 -1.01487885370E+02  1.01487885370E+02  0.00000000000E+00  0.0000E+00  9.0
       24    2    1    2    0    0 -1.12146571223E+02  2.39829264543E+01  3.52063402718E+00  1.41861655352E+02  8.34284136065E+01  1.0148E-13  9.0
      -24    2    1    2    0    0  1.12146571223E+02 -2.39829264543E+01  1.20299428289E+02  1.84934177690E+02  8.10966302191E+01  1.1914E-14  9.0
       -3    1    3    3    0  500 -1.33264188372E+01  1.15601765997E+01  3.34885683902E+01  3.78512263324E+01  0.00000000000E+00  0.0000E+00  9.0
        4    1    3    3  500    0 -9.88201523854E+01  1.24227498546E+01 -2.99679343630E+01  1.04010429019E+02  5.87386917370E-01  0.0000E+00  9.0
        3    1    4    4  504    0  5.48774361354E+00  2.14421342301E+01  3.33234904492E+01  4.00041931056E+01  0.00000000000E+00  0.0000E+00  9.0
       -4    1    4    4    0  504  1.06658827609E+02 -4.54250606844E+01  8.69759378396E+01  1.44929984584E+02  5.87386917370E-01  0.0000E+00  9.0
</event>
<event>
 8    1   5.1859766E+00   4.8750000E+02  -1.0000000E+00   9.3770000E-02
       11   -1    0    0    0    0  0.00000000000E+00  0.00000000000E+00  2.37640423910E+02  2.37640423910E+02  0.00000000000E+00  0.0000E+00  9.0
      -11   -1    0    0    0    0  0.00000000000E+00  0.00000000000E+00 -2.50000000000E+02  2.50000000000E+02  0.00000000000E+00  0.0000E+00  9.0
       24    2    1    2    0    0  1.63156860403E+02 -1.53686850723E+00 -1.66727669799E+02  2.48451502710E+02  8.54839766319E+01  5.6232E-14  9.0
      -24    2    1    2    0    0 -1.63156860403E+02  1.53686850723E+00  1.54368093709E+02  2.39188921205E+02  8.22150145079E+01  1.0516E-13  9.0
       -1    1    3    3    0  500  2.75626904761E+01 -3.49032171254E+01 -4.36013918152E+01  6.22817616980E+01  0.00000000000E+00  0.0000E+00  9.0
        2    1    3    3  500    0  1.35594169927E+02  3.33663486182E+01 -1.23126277984E+02  1.86169741012E+02  0.00000000000E+00  0.0000E+00  9.0
        1    1    4    4  504    0 -1.37044057177E+02  3.25036569613E+01  1.31403130913E+02  1.92624879330E+02  0.00000000000E+00  0.0000E+00  9.0
       -2    1    4    4    0  504 -2.61128032264E+01 -3.09667884540E+01  2.29649627961E+01  4.65640418748E+01  0.00000000000E+00  0.0000E+00  9.0
</event>
<event>
 8    1   5.1859766E+00   4.9490000E+02  -1.0000000E+00   9.3610000E-02
       11   -1    0    0    0    0  0.00000000000E+00  0.00000000000E+00  2.49934435680E+02  2.49934435680E+02  0.00000000000E+00  0.0000E+00  9.0
      -11   -1    0    0    0    0  0.00000000000E+00  0.00000000000E+00 -2.44944477540E+02  2.44944477540E+02  0.00000000000E+00  0.0000E+00  9.0
       24    2    1    2    0    0 -2.28169054574E+02  1.66706246187E+01 -4.60494241072E+01  2.47346202290E+02  8.19790652337E+01  4.1566E-13  9.0
      -24    2    1    2    0    0  2.28169054574E+02 -1.66706246187E+01  5.10393822442E+01  2.47532710922E+02  7.95512240392E+01  9.9675E-14  9.0
       -3    1    3    3    0  500 -9.73738307394E+01  2.84864921621E+01  1.49345169954E+01  1.02548441950E+02  0.00000000000E+00  0.0000E+00  9.0
        4    1    3    3  500    0 -1.30795223834E+02 -1.18158675433E+01 -6.09839411025E+01  1.44797760340E+02  5.87386917370E-01  0.0000E+00  9.0
        1    1    4    4  504    0  1.01648436751E+02  1.68468822157E+01 -9.21097261101E+00  1.03445947967E+02  0.00000000000E+00  0.0000E+00  9.0
       -2    1    4    4    0  504  1.26520617823E+02 -3.35175068345E+01  6.02503548552E+01  1.44086762955E+02  0.00000000000E+00  0.0000E+00  9.0
</event>
<event>
 8    1   5.1859766E+00   5.0000000E+02  -1.0000000E+00   9.3490000E-02
       11   -1    0    0    0    0  0.00000000000E+00  0.00000000000E+00  2.49999982230E+02  2.49999982230E+02  0.00000000000E+00  0.0000E+00  9.0
      -11   -1    0    0    0    0  0.00000000000E+00  0.00000000000E+00 -2.49999999980E+02  2.49999999980E+02  0.00000000000E+00  0.0000E+00  9.0
       24    2    1    2    0    0 -6.69800557044E+01 -1.19044438282E+02 -1.92261181522E+02  2.49441129837E+02  8.12318237269E+01  1.1118E-13  9.0
      -24    2    1    2    0    0  6.69800557044E+01  1.19044438282E+02  1.92261163762E+02  2.50558852370E+02  8.46018750474E+01  3.6737E-13  9.0
       -1    1    3    3    0  500 -1.53785907203E+01 -7.99749555171E+01 -1.54122790454E+02  1.74316749339E+02  0.00000000000E+00  0.0000E+00  9.0
        2    1    3    3  500    0 -5.16014649841E+01 -3.90694827653E+01 -3.81383910675E+01  7.51243804984E+01  0.00000000000E+00  0.0000E+00  9.0
        3    1    4    4  504    0  2.49023831510E+01  1.12297346674E+01  9.66539774441E+01  1.00440166184E+02  0.00000000000E+00  0.0000E+00  9.0
       -4    1    4    4    0  504  4.20776725535E+01  1.07814703615E+02  9.56071863178E+01  1.50118686186E+02  5.87386917370E-01  0.0000E+00  9.0
</event>
<event>
 8    1   5.1859766E+00   4.7440000E+02  -1.0000000E+00   9.4080000E-02
       11   -1    0    0    0    0  0.00000000000E+00  0.00000000000E+00  2.46058552730E+02  2.46058552730E+02  0.00000000000E+00  0.0000E+00  9.0
      -11   -1    0    0    0    0  0.00000000000E+00  0.00000000000E+00 -2.28673830240E+02  2.28673830240E+02  0.00000000000E+00  0.0000E+00  9.0
       24    2    1    2    0    0  3.38885590085E+01  2.14181886280E+02 -4.38398458409E+01  2.36292176592E+02  8.30044926092E+01  1.4837E-13  9.0
      -24    2    1    2    0    0 -3.38885590085E+01 -2.14181886280E+02  6.12245683279E+01  2.38440206385E+02  7.79933933863E+01  3.2937E-14  9.0
       -3    1    3    3    0  500  4.46364486823E+01  7.53402722759E+01 -4.17613067610E+01  9.70184308261E+01  0.00000000000E+00  0.0000E+00  9.0
        4    1    3    3  500    0 -1.07478896738E+01  1.38841614004E+02 -2.07853907988E+00  1.39273745766E+02  5.87386917370E-01  0.0000E+00  9.0
        1    1    4    4  504    0 -1.68553347353E+01 -1.80816936728E+02  7.76885948013E+01  1.97520593051E+02  0.00000000000E+00  0.0000E+00  9.0
       -2    1    4    4    0  504 -1.70332242732E+01 -3.33649495513E+01 -1.64640264734E+01  4.09196133342E+01  0.00000000000E+00  0.0000E+00  9.0
</event>
<event>
 8    1   5.1859766E+00   5.0000000E+02  -1.0000000E+00   9.3490000E-02
       11   -1    0    0    0    0  0.00000000000E+00  0.00000000000E+00  2.49999995390E+02  2.49999995390E+02  0.00000000000E+00  0.0000E+00  9.0
      -11   -1    0    0    0    0  0.00000000000E+00  0.00000000000E+00 -2.49989012840E+02  2.49989012840E+02  0.00000000000E+00  0.0000E+00  9.0
       24    2    1    2    0    0  2.15297707330E+01  2.77811750884E+01 -2.33478450136E+02  2.49524894050E+02  8.07165494514E+01  2.9998E-14  9.0
      -24    2    1    2    0    0 -2.15297707330E+01 -2.77811750884E+01  2.33489432686E+02  2.50464114179E+02  8.35441954785E+01  4.3319E-15  9.0
       -3    1    3    3    0  500  6.37146941190E+00  3.04020686955E+00  5.40118645998E+00  8.88882981342E+00  0.00000000000E+00  0.0000E+00  9.0
        4    1    3    3  500    0  1.51583013211E+01  2.47409682189E+01 -2.38879636596E+02  2.40636064236E+02  5.87386917370E-01  0.0000E+00  9.0
        3    1    4    4  504    0 -1.21770858623E+01 -4.90053872182E+00 -2.34764292427E+00  1.33344713867E+01  0.00000000000E+00  0.0000E+00  9.0
       -4    1    4    4    0  504 -9.35268487068E+00 -2.28806363666E+01  2.35837075611E+02  2.37129642792E+02  5.87386917370E-01  0.0000E+00  9.0
</event>
<event>
 8    1   5.1859766E+00   4.9700000E+02  -1.0000000E+00   9.3560000E-02
       11   -1    0    0    0    0  0.00000000000E+00  0.00000000000E+00  2.49999999930E+02  2.49999999930E+02  0.00000000000E+00  0.0000E+00  9.0
      -11   -1    0    0    0    0  0.00000000000E+00  0.00000000000E+00 -2.47054852800E+02  2.47054852800E+02  0.00000000000E+00  0.0000E+00  9.0
       24    2    1    2    0    0 -2.71708827028E+01 -1.41202469428E+02 -1.84202136395E+02  2.47552033126E+02  8.17018225800E+01  2.2860E-15  9.0
      -24    2    1    2    0    0  2.71708827028E+01  1.41202469428E+02  1.87147283535E+02  2.49502819594E+02  8.09392180056E+01  1.7094E-13  9.0
       -1    1    3    3    0  500 -4.39701650609E+01 -4.72149445020E+01 -4.46402102302E+01  7.84561964997E+01  0.00000000000E+00  0.0000E+00  9.0
        2    1    3    3  500    0  1.67992823581E+01 -9.39875249255E+01 -1.39561926165E+02  1.69095836626E+02  0.00000000000E+00  0.0000E+00  9.0
        1    1    4    4  504    0  1.78990921619E+01  1.36930875833E+02  1.93316800205E+02  2.37574888189E+02  0.00000000000E+00  0.0000E+00  9.0
       -2    1    4    4    0  504  9.27179054092E+00  4.27159359473E+00 -6.16951666925E+00  1.19279314051E+01  0.00000000000E+00  0.0000E+00  9.0
</event>
<event>
 8    1   5.1859766E+00   3.6460000E+02  -1.0000000E+00   9.7120000E-02
       11   -1    0    0    0    0  0.00000000000E+00  0.00000000000E+00  1.40276702160E+02  1.40276702160E+02  0.00000000000E+00  0.0000E+00  9.0
      -11   -1    0    0    0    0  0.00000000000E+00  0.00000000000E+00 -2.36938087850E+02  2.36938087850E+02  0.00000000000E+00  0.0000E+00  9.0
       24    2    1    2    0    0 -3.15450110797E+01  1.10926523901E+01 -2.19381685501E+02  2.40658328578E+02  9.31126872108E+01  1.5498E-13  9.0
      -24    2    1    2    0    0  3.15450110797E+01 -1.10926523901E+01  1.22720299811E+02  1.36556461427E+02  4.96916543374E+01  1.3897E-16  9.0
       -1    1    3    3    0  500  2.82832435647E+00 -3.00660286272E+01 -1.49785387614E+02  1.52799305754E+02  0.00000000000E+00  0.0000E+00  9.0
        2    1    3    3  500    0 -3.43733354362E+01  4.11586810173E+01 -6.95962978870E+01  8.78590228245E+01  0.00000000000E+00  0.0000E+00  9.0
        3    1    4    4  504    0  5.88471153158E+00 -1.97707704182E+01  9.71001721556E+01  9.92670973958E+01  0.00000000000E+00  0.0000E+00  9.0
       -4    1    4    4    0  504  2.56602995482E+01  8.67811802806E+00  2.56201276555E+01  3.72893640316E+01  5.87386917370E-01  0.0000E+00  9.0
</event>
<event>
 8    1   5.1859766E+00   4.9950000E+02  -1.0000000E+00   9.3500000E-02
       11   -1    0    0    0    0  0.00000000000E+00  0.00000000000E+00  2.49540300140E+02  2.49540300140E+02  0.00000000000E+00  0.0000E+00  9.0
      -11   -1    0    0    0    0  0.00000000000E+00  0.00000000000E+00 -2.50000000000E+02  2.50000000000E+02  0.00000000000E+00  0.0000E+00  9.0
       24    2    1    2    0    0 -3.67289898583E+01 -4.19843229987E+01 -2.29996206646E+02  2.50230236687E+02  8.12724689363E+01  1.5914E-13  9.0
      -24    2    1    2    0    0  3.67289898583E+01  4.19843229987E+01  2.29536506786E+02  2.49310063449E+02  7.97295285043E+01  3.4074E-15  9.0
       -1    1    3    3    0  500  1.63956593146E+01  1.09203410146E+01 -8.19192574507E+01  8.42545917652E+01  0.00000000000E+00  0.0000E+00  9.0
        2    1    3    3  500    0 -5.31246491729E+01 -5.29046640133E+01 -1.48076949195E+02  1.65975644921E+02  0.00000000000E+00  0.0000E+00  9.0
        3    1    4    4  504    0 -1.78032860340E+01  3.26588073182E+01  1.32360225116E+02  1.37487395356E+02  0.00000000000E+00  0.0000E+00  9.0
       -4    1    4    4    0  504  5.45322758924E+01  9.32551568048E+00  9.71762816703E+01  1.11822668093E+02  5.87386917370E-01  0.0000E+00  9.0
</event>
<event>
 8    1   5.1859766E+00   4.7990000E+02  -1.0000000E+00   9.3950000E-02
       11   -1    0    0    0    0  0.00000000000E+00  0.00000000000E+00  2.30387984780E+02  2.30387984780E+02  0.00000000000E+00  0.0000E+00  9.0
      -11   -1    0    0    0    0  0.00000000000E+00  0.00000000000E+00 -2.49904220730E+02  2.49904220730E+02  0.00000000000E+00  0.0000E+00  9.0
       24    2    1    2    0    0 -6.18391948145E+00 -5.34519299733E+01 -2.29652978855E+02  2.49231523206E+02  8.05016259736E+01  1.6934E-13  9.0
      -24    2    1    2    0    0  6.18391948145E+00  5.34519299733E+01  2.10136742905E+02  2.31060682312E+02  7.96004931757E+01  1.0314E-13  9.0
       -1    1    3    3    0  500  9.89321423061E+00 -7.16882975336E+01 -1.65707218025E+02  1.80820269319E+02  0.00000000000E+00  0.0000E+00  9.0
        2    1    3    3  500    0 -1.60771337121E+01  1.82363675603E+01 -6.39457608301E+01  6.84112538866E+01  0.00000000000E+00  0.0000E+00  9.0
        3    1    4    4  504    0  3.34363838226E+01  4.33780259851E+01  7.52028897335E+01  9.30328948586E+01  0.00000000000E+00  0.0000E+00  9.0
       -4    1    4    4    0  504 -2.72524643412E+01  1.00739039882E+01  1.34933853171E+02  1.38027787453E+02  5.87386917370E-01  0.0000E+00  9.0
</event>
<event>
 8    1   5.1859766E+00   4.9680000E+02  -1.0000000E+00   9.3560000E-02
       11   -1    0    0    0    0  0.00000000000E+00  0.00000000000E+00  2.49886661880E+02  2.49886661880E+02  0.00000000000E+00  0.0000E+00  9.0
      -11   -1    0    0    0    0  0.00000000000E+00  0.00000000000E+00 -2.46957364510E+02  2.46957364510E+02  0.00000000000E+00  0.0000E+00  9.0
       24    2    1    2    0    0  6.03015762018E+01  1.07221313056E+01 -2.25612298229E+02  2.46561003983E+02  7.83592711852E+01  4.7389E-14  9.0
      -24    2    1    2    0    0 -6.03015762018E+01 -1.07221313056E+01  2.28541595599E+02  2.50283022406E+02  8.16032241613E+01  4.0103E-14  9.0
       -3    1    3    3    0  500 -1.31551360659E+01  1.76587035985E+01 -8.45007544508E+01  8.73227628998E+01  0.00000000000E+00  0.0000E+00  9.0
        4    1    3    3  500    0  7.34567122678E+01 -6.93657229289E+00 -1.41111543778E+02  1.59238241083E+02  5.87386917370E-01  0.0000E+00  9.0
        3    1    4    4  504    0 -2.62874108989E-01 -3.61517443101E+01  9.57102326502E+01  1.02310636560E+02  0.00000000000E+00  0.0000E+00  9.0
       -4    1    4    4    0  504 -6.00387020929E+01  2.54296130044E+01  1.32831362949E+02  1.47972385845E+02  5.87386917370E-01  0.0000E+00  9.0
</event>
<event>
 8    1   5.1859766E+00   5.0000000E+02  -1.0000000E+00   9.3490000E-02
       11   -1    0    0    0    0  0.00000000000E+00  0.00000000000E+00  2.49957443530E+02  2.49957443530E+02  0.00000000000E+00  0.0000E+00  9.0
      -11   -1    0    0    0    0  0.00000000000E+00  0.00000000000E+00 -2.49999963070E+02  2.49999963070E+02  0.00000000000E+00  0.0000E+00  9.0
       24    2    1    2    0    0  1.04845676680E+02 -1.22099361279E+02 -1.70887566011E+02  2.50455778816E+02  8.73193391069E+01  1.6004E-13  9.0
      -24    2    1    2    0    0 -1.04845676680E+02  1.22099361279E+02  1.70845046471E+02  2.49501627789E+02  8.46295599822E+01  4.3991E-14  9.0
       -1    1    3    3    0  500  6.83680921763E+00 -2.30760495841E+01 -8.13625148643E+01  8.48475388549E+01  0.00000000000E+00  0.0000E+00  9.0
        2    1    3    3  500    0  9.80088674624E+01 -9.90233116946E+01 -8.95250511463E+01  1.65608239961E+02  0.00000000000E+00  0.0000E+00  9.0
       13    1    4    4    0    0 -6.55586840460E+01  8.71602168924E+01  1.63322879121E+02  1.96390474513E+02  1.05700000000E-01  0.0000E+00  9.0
      -14    1    4    4    0    0 -3.92869926339E+01  3.49391443863E+01  7.52216734920E+00  5.31111532759E+01  0.00000000000E+00  0.0000E+00  9.0
</event>
<event>
 8    1   5.1859766E+00   4.9030000E+02  -1.0000000E+00   9.3710000E-02
       11   -1    0    0    0    0  0.00000000000E+00  0.00000000000E+00  2.50000000000E+02  2.50000000000E+02  0.00000000000E+00  0.0000E+00  9.0
      -11   -1    0    0    0    0  0.00000000000E+00  0.00000000000E+00 -2.40358089830E+02  2.40358089830E+02  0.00000000000E+00  0.0000E+00  9.0
       24    2    1    2    0    0 -1.31730339331E+02  1.82816272962E+02  5.50281350636E+01  2.46977030770E+02  8.48226745606E+01  1.1893E-14  9.0
      -24    2    1    2    0    0  1.31730339331E+02 -1.82816272962E+02 -4.53862248906E+01  2.43381059053E+02  7.99984908355E+01  8.0488E-14  9.0
       -1    1    3    3    0  500 -1.09401711864E+02  1.87306421982E+02  5.65020384498E+01  2.24153765580E+02  0.00000000000E+00  0.0000E+00  9.0
        2    1    3    3  500    0 -2.23286274667E+01 -4.49014902017E+00 -1.47390338625E+00  2.28232651906E+01  0.00000000000E+00  0.0000E+00  9.0
        1    1    4    4  504    0  7.00044922638E+01 -1.14280099378E+02 -6.52097609952E+01  1.49039870438E+02  0.00000000000E+00  0.0000E+00  9.0
       -2    1    4    4    0  504  6.17258470670E+01 -6.85361735839E+01  1.98235361046E+01  9.43411886154E+01  0.00000000000E+00  0.0000E+00  9.0
</event>
<event>
 8    1   5.1859766E+00   4.7740000E+02  -1.0000000E+00   9.4010000E-02
       11   -1    0    0    0    0  0.00000000000E+00  0.00000000000E+00  2.28404531150E+02  2.28404531150E+02  0.00000000000E+00  0.0000E+00  9.0
      -11   -1    0    0    0    0  0.00000000000E+00  0.00000000000E+00 -2.49464077210E+02  2.49464077210E+02  0.00000000000E+00  0.0000E+00  9.0
       24    2    1    2    0    0  2.88351230347E+01 -5.41763826238E+01 -2.26986233001E+02  2.48284081859E+02  7.97225851172E+01  4.5860E-14  9.0
      -24    2    1    2    0    0 -2.88351230347E+01  5.41763826238E+01  2.05926686941E+02  2.29584526504E+02  8.08499206006E+01  6.7970E-14  9.0
       -3    1    3    3    0  500 -2.48888037682E+01 -1.21998834527E+01 -1.04356367938E+02  1.07974724998E+02  0.00000000000E+00  0.0000E+00  9.0
        4    1    3    3  500    0  5.37239268029E+01 -4.19764991710E+01 -1.22629865063E+02  1.40309356861E+02  5.87386917370E-01  0.0000E+00  9.0
        3    1    4    4  504    0  2.06980483872E+01  2.55721241851E+01  1.32406516464E+02  1.36432504721E+02  0.00000000000E+00  0.0000E+00  9.0
       -4    1    4    4    0  504 -4.95331714219E+01  2.86042584387E+01  7.35201704771E+01  9.31520217833E+01  5.87386917370E-01  0.0000E+00  9.0
</event>
<event>
 8    1   5.1859766E+00   3.3570000E+02  -1.0000000E+00   9.8120000E-02
       11   -1    0    0    0    0  0.00000000000E+00  0.00000000000E+00  1.12670216930E+02  1.12670216930E+02  0.00000000000E+00  0.0000E+00  9.0
      -11   -1    0    0    0    0  0.00000000000E+00  0.00000000000E+00 -2.49999999360E+02  2.49999999360E+02  0.00000000000E+00  0.0000E+00  9.0
       24    2    1    2    0    0 -1.89011444142E+01  4.11122075920E+01 -2.21391698562E+02  2.39740690164E+02  8.00864998297E+01  1.3649E-14  9.0
      -24    2    1    2    0    0  1.89011444142E+01 -4.11122075920E+01  8.40619161335E+01  1.22929526132E+02  7.74454374231E+01  4.4183E-14  9.0
       -1    1    3    3    0  500 -3.15101998563E+01 -6.96736506993E+00 -1.45388723038E+02  1.48927222689E+02  0.00000000000E+00  0.0000E+00  9.0
        2    1    3    3  500    0  1.26090554421E+01  4.80795726619E+01 -7.60029755232E+01  9.08134674752E+01  0.00000000000E+00  0.0000E+00  9.0
        3    1    4    4  504    0  5.57359333821E+00 -3.35370133419E+01  9.70476949861E+01  1.02830206208E+02  0.00000000000E+00  0.0000E+00  9.0
       -4    1    4    4    0  504  1.33275510760E+01 -7.57519425008E+00 -1.29857788525E+01  2.00993199240E+01  5.87386917370E-01  0.0000E+00  9.0
</event>
<event>
 8    1   5.1859766E+00   4.9920000E+02  -1.0000000E+00   9.3510000E-02
       11   -1    0    0    0    0  0.00000000000E+00  0.00000000000E+00  2.49797899110E+02  2.49797899110E+02  0.00000000000E+00  0.0000E+00  9.0
      -11   -1    0    0    0    0  0.00000000000E+00  0.00000000000E+00 -2.49450641210E+02  2.49450641210E+02  0.00000000000E+00  0.0000E+00  9.0
       24    2    1    2    0    0 -1.62994932352E+02  5.06282806528E+01 -1.63347128959E+02  2.49496350956E+02  8.02220283150E+01  5.8505E-14  9.0
      -24    2    1    2    0    0  1.62994932352E+02 -5.06282806528E+01  1.63694386859E+02  2.49752189365E+02  8.03102299157E+01  1.0474E-14  9.0
      -13    1    3    3    0    0 -6.16637692676E+01  1.33912940520E+01 -1.30352521243E+01  6.44335019001E+01  1.05700000000E-01  0.0000E+00  9.0
       14    1    3    3    0    0 -1.01331163084E+02  3.72369866008E+01 -1.50311876835E+02  1.85062849056E+02  0.00000000000E+00  0.0000E+00  9.0
        3    1    4    4  500    0  1.58451991222E+02 -3.60939438162E+01  1.68178466571E+02  2.33867062496E+02  0.00000000000E+00  0.0000E+00  9.0
       -4    1    4    4    0  500  4.54294113028E+00 -1.45343368366E+01 -4.48407971180E+00  1.58851268690E+01  5.87386917370E-01  0.0000E+00  9.0
</event>
<event>
 8    1   5.1859766E+00   3.7420000E+02  -1.0000000E+00   9.6810000E-02
       11   -1    0    0    0    0  0.00000000000E+00  0.00000000000E+00  2.49999994840E+02  2.49999994840E+02  0.00000000000E+00  0.0000E+00  9.0
      -11   -1    0    0    0    0  0.00000000000E+00  0.00000000000E+00 -1.40014931130E+02  1.40014931130E+02  0.00000000000E+00  0.0000E+00  9.0
       24    2    1    2    0    0  1.55332420073E+02  6.03237657313E+00 -1.25693517807E+01  1.75117814619E+02  7.96474111300E+01  2.0849E-13  9.0
      -24    2    1    2    0    0 -1.55332420073E+02 -6.03237657313E+00  1.22554415492E+02  2.14897111356E+02  8.36458810674E+01  1.7618E-13  9.0
      -13    1    3    3    0    0  8.51115209887E+01  3.38546106047E+01  1.84972911471E+01  9.34465976721E+01  1.05700000000E-01  0.0000E+00  9.0
       14    1    3    3    0    0  7.02208990844E+01 -2.78222340316E+01 -3.10666429278E+01  8.16712169466E+01  0.00000000000E+00  0.0000E+00  9.0
        3    1    4    4  500    0 -1.95237376065E+00  2.05806460868E+01  1.13418789795E+01  2.35799273840E+01  0.00000000000E+00  0.0000E+00  9.0
       -4    1    4    4    0  500 -1.53380046313E+02 -2.66130226599E+01  1.11212536512E+02  1.91317183972E+02  5.87386917370E-01  0.0000E+00  9.0
</event>
<event>
 8    1   5.1859766E+00   3.4210000E+02  -1.0000000E+00   9.7890000E-02
       11   -1    0    0    0    0  0.00000000000E+00  0.00000000000E+00  2.50000000000E+02  2.50000000000E+02  0.00000000000E+00  0.0000E+00  9.0
      -11   -1    0    0    0    0  0.00000000000E+00  0.00000000000E+00 -1.17007401590E+02  1.17007401590E+02  0.00000000000E+00  0.0000E+00  9.0
       24    2    1    2    0    0 -2.32696719071E+01  2.53734585486E+01 -9.11785818838E+01  1.26320719977E+02  8.03623075317E+01  5.4088E-14  9.0
      -24    2    1    2    0    0  2.32696719071E+01 -2.53734585486E+01  2.24171180298E+02  2.40686681616E+02  8.05733864356E+01  6.7850E-14  9.0
      -13    1    3    3    0    0 -1.48921372532E+01  5.09932578990E+01 -3.39043045843E+01  6.30206406263E+01  1.05700000000E-01  0.0000E+00  9.0
       14    1    3    3    0    0 -8.37753465386E+00 -2.56197993504E+01 -5.72742772995E+01  6.33000793508E+01  0.00000000000E+00  0.0000E+00  9.0
        1    1    4    4  500    0 -2.45372562093E+01  1.14186692821E+01  6.15697470392E+01  6.72554585214E+01  0.00000000000E+00  0.0000E+00  9.0
       -2    1    4    4    0  500  4.78069281164E+01 -3.67921278307E+01  1.62601433259E+02  1.73431223094E+02  0.00000000000E+00  0.0000E+00  9.0
</event>
<event>
 8    1   5.1859766E+00   5.0000000E+02  -1.0000000E+00   9.3490000E-02
       11   -1    0    0    0    0  0.00000000000E+00  0.00000000000E+00  2.49980105650E+02  2.49980105650E+02  0.00000000000E+00  0.0000E+00  9.0
      -11   -1    0    0    0    0  0.00000000000E+00  0.00000000000E+00 -2.49986192750E+02  2.49986192750E+02  0.00000000000E+00  0.0000E+00  9.0
       24    2    1    2    0    0 -2.49981607489E+01  7.82089592249E+01 -2.22329103729E+02  2.50100099810E+02  7.98641359812E+01  1.3357E-14  9.0
      -24    2    1    2    0    0  2.49981607489E+01 -7.82089592249E+01  2.22323016639E+02  2.49866198586E+02  7.91457145049E+01  1.2791E-14  9.0
       -3    1    3    3    0  500 -2.91965817102E+01  9.05452718212E+01 -1.57753102196E+02  1.84219781471E+02  0.00000000000E+00  0.0000E+00  9.0
        4    1    3    3  500    0  4.19842096135E+00 -1.23363125964E+01 -6.45760015325E+01  6.58803183383E+01  5.87386917370E-01  0.0000E+00  9.0
        3    1    4    4  504    0  8.47493917161E-01 -6.13726261350E+01  6.34189430948E+01  8.82568967725E+01  0.00000000000E+00  0.0000E+00  9.0
       -4    1    4    4    0  504  2.41506668317E+01 -1.68363330899E+01  1.58904073544E+02  1.61609301813E+02  5.87386917370E-01  0.0000E+00  9.0
</event>
<event>
 8    1   5.1859766E+00   1.8960000E+02  -1.0000000E+00   1.0560000E-01
       11   -1    0    0    0    0  0.00000000000E+00  0.00000000000E+00  3.59665948980E+01  3.59665948980E+01  0.00000000000E+00  0.0000E+00  9.0
      -11   -1    0    0    0    0  0.00000000000E+00  0.00000000000E+00 -2.49999999510E+02  2.49999999510E+02  0.00000000000E+00  0.0000E+00  9.0
       24    2    1    2    0    0  1.06282465891E+01  4.48475383832E+01 -9.06756614528E+01  1.29959269206E+02  8.08892746163E+01  2.2259E-14  9.0
      -24    2    1    2    0    0 -1.06282465891E+01 -4.48475383832E+01 -1.23357743162E+02  1.56007325204E+02  8.36474231208E+01  2.5993E-13  9.0
       -1    1    3    3    0  500  3.03846690890E+01 -1.16203389728E+01 -3.99876133808E+01  5.15487111127E+01  0.00000000000E+00  0.0000E+00  9.0
        2    1    3    3  500    0 -1.97564224999E+01  5.64678773560E+01 -5.06880480720E+01  7.84105580929E+01  0.00000000000E+00  0.0000E+00  9.0
        1    1    4    4  504    0 -4.57522028003E+01 -2.19523787455E+01 -4.84329988426E+01  7.01493148260E+01  0.00000000000E+00  0.0000E+00  9.0
       -2    1    4    4    0  504  3.51239562113E+01 -2.28951596376E+01 -7.49247443196E+01  8.58580103783E+01  0.00000000000E+00  0.0000E+00  9.0
</event>
<event>
 8    1   5.1859766E+00   4.9510000E+02  -1.0000000E+00   9.3600000E-02
       11   -1    0    0    0    0  0.00000000000E+00  0.00000000000E+00  2.45920394770E+02  2.45920394770E+02  0.00000000000E+00  0.0000E+00  9.0
      -11   -1    0    0    0    0  0.00000000000E+00  0.00000000000E+00 -2.49149781150E+02  2.49149781150E+02  0.00000000000E+00  0.0000E+00  9.0
       24    2    1    2    0    0 -2.03767092242E+01  1.97129335153E+01 -2.31042246645E+02  2.46319647884E+02  8.05545726325E+01  5.6620E-14  9.0
      -24    2    1    2    0    0  2.03767092242E+01 -1.97129335153E+01  2.27812860275E+02  2.48750528036E+02  9.57826490810E+01  4.2864E-14  9.0
       -1    1    3    3    0  500 -1.83735020196E+01 -2.44275793732E+01 -4.06066717774E+01  5.08251316116E+01  0.00000000000E+00  0.0000E+00  9.0
        2    1    3    3  500    0 -2.00320720460E+00  4.41405128885E+01 -1.90435574868E+02  1.95494516272E+02  0.00000000000E+00  0.0000E+00  9.0
        1    1    4    4  504    0 -2.35456015175E+01 -2.50026213220E+01  1.81432947584E+02  1.84654923825E+02  0.00000000000E+00  0.0000E+00  9.0
       -2    1    4    4    0  504  4.39223107417E+01  5.28968780670E+00  4.63799126917E+01  6.40956042118E+01  0.00000000000E+00  0.0000E+00  9.0
</event>
<event>
 8    1   5.1859766E+00   4.6860000E+02  -1.0000000E+00   9.4210000E-02
       11   -1    0    0    0    0  0.00000000000E+00  0.00000000000E+00  2.40865197140E+02  2.40865197140E+02  0.00000000000E+00  0.0000E+00  9.0
      -11   -1    0    0    0    0  0.00000000000E+00  0.00000000000E+00 -2.27929348530E+02  2.27929348530E+02  0.00000000000E+00  0.0000E+00  9.0
       24    2    1    2    0    0 -2.57264944561E+01 -2.52742837854E+01 -2.10617913116E+02  2.28274521766E+02  8.03038605816E+01  1.3098E-13  9.0
      -24    2    1    2    0    0  2.57264944561E+01  2.52742837854E+01  2.23553761716E+02  2.40520023902E+02  8.10737663038E+01  2.5362E-14  9.0
       -3    1    3    3    0  500 -4.78437186826E+01 -1.12792395368E+01 -1.85830776489E+02  1.92222059485E+02  0.00000000000E+00  0.0000E+00  9.0
        4    1    3    3  500    0  2.21172242265E+01 -1.39950442486E+01 -2.47871366264E+01  3.60524622811E+01  5.87386917370E-01  0.0000E+00  9.0
        1    1    4    4  504    0  2.53122816914E+01  2.11632659893E+01  2.37003599428E+01  4.06239152862E+01  0.00000000000E+00  0.0000E+00  9.0
       -2    1    4    4    0  504  4.14212764725E-01  4.11101779617E+00  1.99853401773E+02  1.99896108616E+02  0.00000000000E+00  0.0000E+00  9.0
</event>
<event>
 8    1   5.1859766E+00   4.9310000E+02  -1.0000000E+00   9.3640000E-02
       11   -1    0    0    0    0  0.00000000000E+00  0.00000000000E+00  2.43163064660E+02  2.43163064660E+02  0.00000000000E+00  0.0000E+00  9.0
      -11   -1    0    0    0    0  0.00000000000E+00  0.00000000000E+00 -2.49997998140E+02  2.49997998140E+02  0.00000000000E+00  0.0000E+00  9.0
       24    2    1    2    0    0 -6.68358108344E+00 -1.29571262195E+01 -2.36002962976E+02  2.49733735140E+02  8.03553517677E+01  1.5020E-13  9.0
      -24    2    1    2    0    0  6.68358108344E+00  1.29571262195E+01  2.29168029506E+02  2.43427327661E+02  8.07856467965E+01  4.1548E-14  9.0
       -1    1    3    3    0  500  7.69728764674E+00 -2.98343669102E+00 -2.31520787056E+02  2.31667917439E+02  0.00000000000E+00  0.0000E+00  9.0
        2    1    3    3  500    0 -1.43808687302E+01 -9.97368952845E+00 -4.48217592056E+00  1.80658177016E+01  0.00000000000E+00  0.0000E+00  9.0
        1    1    4    4  504    0 -1.66744822464E+01  3.78577308918E+01  7.62934414159E+01  8.67867233483E+01  0.00000000000E+00  0.0000E+00  9.0
       -2    1    4    4    0  504  2.33580633299E+01 -2.49006046723E+01  1.52874588090E+02  1.56640604312E+02  0.00000000000E+00  0.0000E+00  9.0
</event>
<event>
 8    1   5.1859766E+00   3.4380000E+02  -1.0000000E+00   9.7830000E-02
       11   -1    0    0    0    0  0.00000000000E+00  0.00000000000E+00  1.24884476990E+02  1.24884476990E+02  0.00000000000E+00  0.0000E+00  9.0
      -11   -1    0    0    0    0  0.00000000000E+00  0.00000000000E+00 -2.36579744670E+02  2.36579744670E+02  0.00000000000E+00  0.0000E+00  9.0
       24    2    1    2    0    0  1.11360716148E+02  5.57760183393E+01 -1.46098843861E+02  2.08071775367E+02  8.02297837721E+01  2.4258E-13  9.0
      -24    2    1    2    0    0 -1.11360716148E+02 -5.57760183393E+01  3.44035761830E+01  1.53392446295E+02  8.26647639776E+01  9.6629E-14  9.0
       -1    1    3    3    0  500  5.33964901853E+01 -1.33750448301E+01 -3.62270203392E+01  6.58974505651E+01  0.00000000000E+00  0.0000E+00  9.0
        2    1    3    3  500    0  5.79642259628E+01  6.91510631694E+01 -1.09871823522E+02  1.42174324802E+02  0.00000000000E+00  0.0000E+00  9.0
        1    1    4    4  504    0 -1.01123049110E+02 -4.40565435489E+01  5.83866292561E+01  1.24803239408E+02  0.00000000000E+00  0.0000E+00  9.0
       -2    1    4    4    0  504 -1.02376670379E+01 -1.17194747904E+01 -2.39830530731E+01  2.85892068874E+01  0.00000000000E+00  0.0000E+00  9.0
</event>
<event>
 8    1   5.1859766E+00   4.8920000E+02  -1.0000000E+00   9.3730000E-02
       11   -1    0    0    0    0  0.00000000000E+00  0.00000000000E+00  2.39719003740E+02  2.39719003740E+02  0.00000000000E+00  0.0000E+00  9.0
      -11   -1    0    0    0    0  0.00000000000E+00  0.00000000000E+00 -2.49576639870E+02  2.49576639870E+02  0.00000000000E+00  0.0000E+00  9.0
       24    2    1    2    0    0  4.65533748131E+01  3.91125790101E+01 -2.27936002696E+02  2.49577526702E+02  8.14684599473E+01  1.3746E-13  9.0
      -24    2    1    2    0    0 -4.65533748131E+01 -3.91125790101E+01  2.18078366566E+02  2.39718116907E+02  7.88009585351E+01  9.7175E-14  9.0
       -1    1    3    3    0  500 -2.27032628141E+01  1.62368301430E+00 -4.57529624462E+01  5.11019379431E+01  0.00000000000E+00  0.0000E+00  9.0
        2    1    3    3  500    0  6.92566376272E+01  3.74888959958E+01 -1.82183040250E+02  1.98475588759E+02  0.00000000000E+00  0.0000E+00  9.0
        1    1    4    4  504    0 -1.28858724925E+01 -5.55553348454E+01  9.24859496422E+01  1.08655841172E+02  0.00000000000E+00  0.0000E+00  9.0
       -2    1    4    4    0  504 -3.36675023206E+01  1.64427558353E+01  1.25592416924E+02  1.31062275735E+02  0.00000000000E+00  0.0000E+00  9.0
</event>
<event>
 8    1   5.1859766E+00   5.0000000E+02  -1.0000000E+00   9.3490000E-02
       11   -1    0    0    0    0  0.00000000000E+00  0.00000000000E+00  2.50000000000E+02  2.50000000000E+02  0.00000000000E+00  0.0000E+00  9.0
      -11   -1    0    0    0    0  0.00000000000E+00  0.00000000000E+00 -2.49997103200E+02  2.49997103200E+02  0.00000000000E+00  0.0000E+00  9.0
       24    2    1    2    0    0 -5.10265969580E+01 -6.29644055050E+01 -2.22652815449E+02  2.49888635375E+02  7.93840280212E+01  3.6198E-14  9.0
      -24    2    1    2    0    0  5.10265969580E+01  6.29644055050E+01  2.22655712259E+02  2.50108467823E+02  8.00652828477E+01  1.1876E-13  9.0
       -1    1    3    3    0  500 -4.76394222781E+01 -1.68015836086E+00 -1.32600474945E+02  1.40908564122E+02  0.00000000000E+00  0.0000E+00  9.0
        2    1    3    3  500    0 -3.38717467982E+00 -6.12842471442E+01 -9.00523405033E+01  1.08980071254E+02  0.00000000000E+00  0.0000E+00  9.0
        3    1    4    4  504    0  1.07689645931E+01  4.48571229199E+00  1.42715886274E+02  1.43191886670E+02  0.00000000000E+00  0.0000E+00  9.0
       -4    1    4    4    0  504  4.02576323649E+01  5.84786932131E+01  7.99398259852E+01  1.06916581153E+02  5.87386917370E-01  0.0000E+00  9.0
</event>
<event>
 8    1   5.1859766E+00   4.9750000E+02  -1.0000000E+00   9.3550000E-02
       11   -1    0    0    0    0  0.00000000000E+00  0.00000000000E+00  2.50000000000E+02  2.50000000000E+02  0.00000000000E+00  0.0000E+00  9.0
      -11   -1    0    0    0    0  0.00000000000E+00  0.00000000000E+00 -2.47461019060E+02  2.47461019060E+02  0.00000000000E+00  0.0000E+00  9.0
       24    2    1    2    0    0  1.31036283519E+02  8.21231735227E+01 -1.76352601898E+02  2.47461243746E+02  7.88803127013E+01  7.5868E-14  9.0
      -24    2    1    2    0    0 -1.31036283519E+02 -8.21231735227E+01  1.78891582838E+02  2.49999775312E+02  8.11354794025E+01  2.9895E-14  9.0
       -3    1    3    3    0  500  8.93673842433E+01  5.14446430761E+01 -5.80447035296E+01  1.18331180487E+02  0.00000000000E+00  0.0000E+00  9.0
        4    1    3    3  500    0  4.16688992757E+01  3.06785304467E+01 -1.18307898369E+02  1.29130063258E+02  5.87386917370E-01  0.0000E+00  9.0
        1    1    4    4  504    0 -4.99795458995E+00  7.23370339501E+00  4.40922234642E+01  4.49603178915E+01  0.00000000000E+00  0.0000E+00  9.0
       -2    1    4    4    0  504 -1.26038328929E+02 -8.93568769177E+01  1.34799359374E+02  2.05039457421E+02  0.00000000000E+00  0.0000E+00  9.0
</event>
<event>
 8    1   5.1859766E+00   4.5520000E+02  -1.0000000E+00   9.4540000E-02
       11   -1    0    0    0    0  0.00000000000E+00  0.00000000000E+00  2.07174874570E+02  2.07174874570E+02  0.00000000000E+00  0.0000E+00  9.0
      -11   -1    0    0    0    0  0.00000000000E+00  0.00000000000E+00 -2.49999972570E+02  2.49999972570E+02  0.00000000000E+00  0.0000E+00  9.0
       24    2    1    2    0    0  1.62309605400E+02 -1.19449901904E+02 -6.71069444132E+01  2.27330662814E+02  8.10135864953E+01  7.5836E-14  9.0
      -24    2    1    2    0    0 -1.62309605400E+02  1.19449901904E+02  2.42818464172E+01  2.29844184329E+02  1.07824180656E+02  9.4696E-14  9.0
       -1    1    3    3    0  500  2.46371228427E+01 -5.44886094312E+01  2.69705651444E+00  5.98604251034E+01  0.00000000000E+00  0.0000E+00  9.0
        2    1    3    3  500    0  1.37672482558E+02 -6.49612924728E+01 -6.98040009277E+01  1.67470237711E+02  0.00000000000E+00  0.0000E+00  9.0
        1    1    4    4  504    0 -3.65410973462E+01 -1.00243672404E+00 -3.01566610415E+01  4.73886155086E+01  0.00000000000E+00  0.0000E+00  9.0
       -2    1    4    4    0  504 -1.25768508054E+02  1.20452338628E+02  5.44385074587E+01  1.82455568820E+02  0.00000000000E+00  0.0000E+00  9.0
</event>
<event>
 8    1   5.1859766E+00   4.9650000E+02  -1.0000000E+00   9.3570000E-02
       11   -1    0    0    0    0  0.00000000000E+00  0.00000000000E+00  2.47008681050E+02  2.47008681050E+02  0.00000000000E+00  0.0000E+00  9.0
      -11   -1    0    0    0    0  0.00000000000E+00  0.00000000000E+00 -2.49476805790E+02  2.49476805790E+02  0.00000000000E+00  0.0000E+00  9.0
       24    2    1    2    0    0 -1.40298011013E+02 -1.21462737414E+02 -1.45513424779E+02  2.49007548705E+02  7.99617036251E+01  1.7437E-13  9.0
      -24    2    1    2    0    0  1.40298011013E+02  1.21462737414E+02  1.43045300039E+02  2.47477938142E+02  7.96658240996E+01  1.7502E-13  9.0
      -13    1    3    3    0    0 -1.12219422374E+02 -6.81717595637E+01 -5.98853267031E+01  1.44315110390E+02  1.05700000000E-01  0.0000E+00  9.0
       14    1    3    3    0    0 -2.80785886388E+01 -5.32909778504E+01 -8.56280980757E+01  1.04692438315E+02  0.00000000000E+00  0.0000E+00  9.0
        3    1    4    4  500    0  1.79945900531E+01  3.62462393607E+01  7.14433918287E+01  8.21081809259E+01  0.00000000000E+00  0.0000E+00  9.0
       -4    1    4    4    0  500  1.22303420960E+02  8.52164980535E+01  7.16019082102E+01  1.65369757216E+02  5.87386917370E-01  0.0000E+00  9.0
</event>
<event>
 8    1   5.1859766E+00   4.9110000E+02  -1.0000000E+00   9.3690000E-02
       11   -1    0    0    0    0  0.00000000000E+00  0.00000000000E+00  2.41180245920E+02  2.41180245920E+02  0.00000000000E+00  0.0000E+00  9.0
      -11   -1    0    0    0    0  0.00000000000E+00  0.00000000000E+00 -2.49993403120E+02  2.49993403120E+02  0.00000000000E+00  0.0000E+00  9.0
       24    2    1    2    0    0 -2.16927276049E+01 -1.05188674653E+01 -2.35519910221E+02  2.50247729795E+02  8.10745160510E+01  9.2102E-14  9.0
      -24    2    1    2    0    0  2.16927276049E+01  1.05188674653E+01  2.26706753021E+02  2.40925919239E+02  7.78981751529E+01  7.5447E-14  9.0
       -3    1    3    3    0  500 -9.67947430071E+00  3.50132680077E+01 -1.23481030797E+02  1.28713581747E+02  0.00000000000E+00  0.0000E+00  9.0
        4    1    3    3  500    0 -1.20132533042E+01 -4.55321354730E+01 -1.12038879424E+02  1.21534148048E+02  5.87386917370E-01  0.0000E+00  9.0
        3    1    4    4  504    0  2.78705344050E+01  3.61314581559E+01  1.91997250835E+02  1.97345365501E+02  0.00000000000E+00  0.0000E+00  9.0
       -4    1    4    4    0  504 -6.17780680008E+00 -2.56125906905E+01  3.47095021867E+01  4.35805537388E+01  5.87386917370E-01  0.0000E+00  9.0
</event>
<event>
 8    1   5.1859766E+00   4.9220000E+02  -1.0000000E+00   9.3660000E-02
       11   -1    0    0    0    0  0.00000000000E+00  0.00000000000E+00  2.49999993090E+02  2.49999993090E+02  0.00000000000E+00  0.0000E+00  9.0
      -11   -1    0    0    0    0  0.00000000000E+00  0.00000000000E+00 -2.42269411360E+02  2.42269411360E+02  0.00000000000E+00  0.0000E+00  9.0
       24    2    1    2    0    0  2.81025337743E+01 -2.47916458194E+00 -2.27295069380E+02  2.42558313268E+02  7.98472799134E+01  5.5574E-14  9.0
      -24    2    1    2    0    0 -2.81025337743E+01  2.47916458194E+00  2.35025651110E+02  2.49711091182E+02  7.95152420479E+01  9.3666E-14  9.0
       -1    1    3    3    0  500  1.28990687939E+01 -3.59324686401E+01 -5.88282034819E+01  7.01304912519E+01  0.00000000000E+00  0.0000E+00  9.0
        2    1    3    3  500    0  1.52034649804E+01  3.34533040582E+01 -1.68466865898E+02  1.72427822016E+02  0.00000000000E+00  0.0000E+00  9.0
        3    1    4    4  504    0  2.75581377101E+01 -1.44514187041E+00  9.65066195279E+01  1.00374633259E+02  0.00000000000E+00  0.0000E+00  9.0
       -4    1    4    4    0  504 -5.56606714844E+01  3.92430645235E+00  1.38519031582E+02  1.49336457923E+02  5.87386917370E-01  0.0000E+00  9.0
</event>
<event>
 8    1   5.1859766E+00   4.9420000E+02  -1.0000000E+00   9.3620000E-02
       11   -1    0    0    0    0  0.00000000000E+00  0.00000000000E+00  2.49999882380E+02  2.49999882380E+02  0.00000000000E+00  0.0000E+00  9.0
      -11   -1    0    0    0    0  0.00000000000E+00  0.00000000000E+00 -2.44210461800E+02  2.44210461800E+02  0.00000000000E+00  0.0000E+00  9.0
       24    2    1    2    0    0  2.52719658728E+00 -3.25034320166E+01 -2.28604172565E+02  2.44427563135E+02  8.01380439663E+01  1.7070E-13  9.0
      -24    2    1    2    0    0 -2.52719658728E+00  3.25034320166E+01  2.34393593135E+02  2.49782781035E+02  7.99263497448E+01  3.1912E-13  9.0
       -1    1    3    3    0  500 -2.26751839381E+01  6.92467922122E+00 -1.57710073564E+02  1.59482232404E+02  0.00000000000E+00  0.0000E+00  9.0
        2    1    3    3  500    0  2.52023805254E+01 -3.94281112379E+01 -7.08940990008E+01  8.49453307314E+01  0.00000000000E+00  0.0000E+00  9.0
        3    1    4    4  504    0 -3.95299956999E+00  5.92383080556E+01  1.54097736943E+02  1.65139080408E+02  0.00000000000E+00  0.0000E+00  9.0
       -4    1    4    4    0  504  1.42580298271E+00 -2.67348760389E+01  8.02958561915E+01  8.46437006272E+01  5.87386917370E-01  0.0000E+00  9.0
</event>
<event>
 8    1   5.1859766E+00   2.4300000E+02  -1.0000000E+00   1.0220000E-01
       11   -1    0    0    0    0  0.00000000000E+00  0.00000000000E+00  5.94042688920E+01  5.94042688920E+01  0.00000000000E+00  0.0000E+00  9.0
      -11   -1    0    0    0    0  0.00000000000E+00  0.00000000000E+00 -2.48477263050E+02  2.48477263050E+02  0.00000000000E+00  0.0000E+00  9.0
       24    2    1    2    0    0  3.64378483336E+00  2.61718429111E+01 -2.05214957299E+02  2.21765069204E+02  7.98017837544E+01  1.2135E-13  9.0
      -24    2    1    2    0    0 -3.64378483336E+00 -2.61718429111E+01  1.61419631442E+01  8.61164627364E+01  8.03569514778E+01  1.5102E-13  9.0
       -1    1    3    3    0  500  5.63269174951E+00  4.29387752561E+01 -5.22186558147E+01  6.78399119392E+01  0.00000000000E+00  0.0000E+00  9.0
        2    1    3    3  500    0 -1.98890691615E+00 -1.67669323449E+01 -1.52996301485E+02  1.53925157265E+02  0.00000000000E+00  0.0000E+00  9.0
       13    1    4    4    0    0 -4.03021663002E+01 -2.59897441348E+00  2.56561644036E+00  4.04674293315E+01  1.05700000000E-01  0.0000E+00  9.0
      -14    1    4    4    0    0  3.66583814669E+01 -2.35728684977E+01  1.35763467038E+01  4.56490334049E+01  0.00000000000E+00  0.0000E+00  9.0
</event>
<event>
 8    1   5.1859766E+00   4.9610000E+02  -1.0000000E+00   9.3580000E-02
       11   -1    0    0    0    0  0.00000000000E+00  0.00000000000E+00  2.47445593910E+02  2.47445593910E+02  0.00000000000E+00  0.0000E+00  9.0
      -11   -1    0    0    0    0  0.00000000000E+00  0.00000000000E+00 -2.48616579800E+02  2.48616579800E+02  0.00000000000E+00  0.0000E+00  9.0
       24    2    1    2    0    0 -2.06854643768E+01  3.70435367507E+01 -2.32085704675E+02  2.47020704104E+02  7.31802014889E+01  8.2897E-14  9.0
      -24    2    1    2    0    0  2.06854643768E+01 -3.70435367507E+01  2.30914718775E+02  2.49041469598E+02  8.30658424453E+01  1.6081E-13  9.0
      -13    1    3    3    0    0  2.29867623259E+01  5.16564247626E+00 -3.18726389170E+01  3.96352291332E+01  1.05700000000E-01  0.0000E+00  9.0
       14    1    3    3    0    0 -4.36722267028E+01  3.18778942745E+01 -2.00213065758E+02  2.07385474970E+02  0.00000000000E+00  0.0000E+00  9.0
        3    1    4    4  500    0  5.04875483353E+01 -1.17876433429E+01  1.58443022797E+02  1.66709725408E+02  0.00000000000E+00  0.0000E+00  9.0
       -4    1    4    4    0  500 -2.98020839585E+01 -2.52558934078E+01  7.24716959775E+01  8.23317441898E+01  5.87386917370E-01  0.0000E+00  9.0
</event>
<event>
 8    1   5.1859766E+00   5.0000000E+02  -1.0000000E+00   9.3490000E-02
       11   -1    0    0    0    0  0.00000000000E+00  0.00000000000E+00  2.49999999980E+02  2.49999999980E+02  0.00000000000E+00  0.0000E+00  9.0
      -11   -1    0    0    0    0  0.00000000000E+00  0.00000000000E+00 -2.49954925440E+02  2.49954925440E+02  0.00000000000E+00  0.0000E+00  9.0
       24    2    1    2    0    0  1.92297144042E+02 -5.44414927065E+01 -1.23136801793E+02  2.52072494369E+02  9.18466261051E+01  2.3476E-15  9.0
      -24    2    1    2    0    0 -1.92297144042E+02  5.44414927065E+01  1.23181876333E+02  2.47882431058E+02  7.95603999196E+01  5.4624E-14  9.0
       -3    1    3    3    0  500  1.74654011705E+02 -1.39340207576E+01 -1.05331471008E+02  2.04433117483E+02  0.00000000000E+00  0.0000E+00  9.0
        4    1    3    3  500    0  1.76431323368E+01 -4.05074719489E+01 -1.78053307852E+01  4.76393768862E+01  5.87386917370E-01  0.0000E+00  9.0
        3    1    4    4  504    0 -8.46251028949E+01  9.03651967826E+00  1.08573717002E+01  8.57959745449E+01  0.00000000000E+00  0.0000E+00  9.0
       -4    1    4    4    0  504 -1.07672041147E+02  4.54049730282E+01  1.12324504633E+02  1.62086456513E+02  5.87386917370E-01  0.0000E+00  9.0
</event>
<event>
 8    1   5.1859766E+00   2.5910000E+02  -1.0000000E+00   1.0140000E-01
       11   -1    0    0    0    0  0.00000000000E+00  0.00000000000E+00  6.81004468530E+01  6.81004468530E+01  0.00000000000E+00  0.0000E+00  9.0
      -11   -1    0    0    0    0  0.00000000000E+00  0.00000000000E+00 -2.46432464340E+02  2.46432464340E+02  0.00000000000E+00  0.0000E+00  9.0
       24    2    1    2    0    0  7.44039403034E+00  4.88864490192E+00 -2.12400383685E+02  2.27272121871E+02  8.03706170057E+01  4.8399E-14  9.0
      -24    2    1    2    0    0 -7.44039403034E+00 -4.88864490192E+00  3.40683661951E+01  8.72607893246E+01  7.98406755110E+01  3.3275E-15  9.0
       -1    1    3    3    0  500 -7.90285264000E+00 -5.49217745671E+00 -2.08011865186E+02  2.08234375527E+02  0.00000000000E+00  0.0000E+00  9.0
        2    1    3    3  500    0  1.53432466703E+01  1.03808223586E+01 -4.38851849894E+00  1.90377463436E+01  0.00000000000E+00  0.0000E+00  9.0
        3    1    4    4  504    0  6.53630229123E+00  6.03384682254E+00  5.73219344413E+01  5.80080573991E+01  0.00000000000E+00  0.0000E+00  9.0
       -4    1    4    4    0  504 -1.39766963216E+01 -1.09224917245E+01 -2.32535682462E+01  2.92527319255E+01  5.87386917370E-01  0.0000E+00  9.0
</event>
<event>
 8    1   5.1859766E+00   4.8940000E+02  -1.0000000E+00   9.3730000E-02
       11   -1    0    0    0    0  0.00000000000E+00  0.00000000000E+00  2.49993748260E+02  2.49993748260E+02  0.00000000000E+00  0.0000E+00  9.0
      -11   -1    0    0    0    0  0.00000000000E+00  0.00000000000E+00 -2.39472856970E+02  2.39472856970E+02  0.00000000000E+00  0.0000E+00  9.0
       24    2    1    2    0    0  3.12266946776E+00  2.55288104112E+01 -2.23948039929E+02  2.39818305684E+02  8.18451215870E+01  5.0325E-14  9.0
      -24    2    1    2    0    0 -3.12266946776E+00 -2.55288104112E+01  2.34468931219E+02  2.49648299538E+02  8.17748282155E+01  9.8558E-15  9.0
       -3    1    3    3    0  500 -7.88954310365E+00 -2.64243386894E+01 -1.19523400814E+02  1.22663498677E+02  0.00000000000E+00  0.0000E+00  9.0
        4    1    3    3  500    0  1.10122125714E+01  5.19531491007E+01 -1.04424639115E+02  1.17154807007E+02  5.87386917370E-01  0.0000E+00  9.0
       13    1    4    4    0    0 -1.96013620895E+01  1.87706696999E+01  3.30858336865E+01  4.27929316589E+01  1.05700000000E-01  0.0000E+00  9.0
      -14    1    4    4    0    0  1.64786926217E+01 -4.42994801111E+01  2.01383097533E+02  2.06855367879E+02  0.00000000000E+00  0.0000E+00  9.0
</event>
<event>
 8    1   5.1859766E+00   4.9530000E+02  -1.0000000E+00   9.3600000E-02
       11   -1    0    0    0    0  0.00000000000E+00  0.00000000000E+00  2.49999999960E+02  2.49999999960E+02  0.00000000000E+00  0.0000E+00  9.0
      -11   -1    0    0    0    0  0.00000000000E+00  0.00000000000E+00 -2.45318845220E+02  2.45318845220E+02  0.00000000000E+00  0.0000E+00  9.0
       24    2    1    2    0    0  2.16467159700E+01 -4.84267591734E+01 -2.26375137052E+02  2.45088448286E+02  7.75171819112E+01  8.9517E-14  9.0
      -24    2    1    2    0    0 -2.16467159700E+01  4.84267591734E+01  2.31056291802E+02  2.50230396891E+02  8.00906375968E+01  1.8081E-14  9.0
       -1    1    3    3    0  500  3.26894220782E+01  9.59180949436E+00 -6.79313853943E+01  7.59952251577E+01  0.00000000000E+00  0.0000E+00  9.0
        2    1    3    3  500    0 -1.10427061082E+01 -5.80185686677E+01 -1.58443751658E+02  1.69093223128E+02  0.00000000000E+00  0.0000E+00  9.0
       13    1    4    4    0    0  2.32827101043E+01  7.66438785422E-01  1.11501740194E+02  1.13909267652E+02  1.05700000000E-01  0.0000E+00  9.0
      -14    1    4    4    0    0 -4.49294260743E+01  4.76603203879E+01  1.19554551608E+02  1.36321129239E+02  0.00000000000E+00  0.0000E+00  9.0
</event>
<event>
 8    1   5.1859766E+00   4.8860000E+02  -1.0000000E+00   9.3750000E-02
       11   -1    0    0    0    0  0.00000000000E+00  0.00000000000E+00  2.39767100550E+02  2.39767100550E+02  0.00000000000E+00  0.0000E+00  9.0
      -11   -1    0    0    0    0  0.00000000000E+00  0.00000000000E+00 -2.48879406280E+02  2.48879406280E+02  0.00000000000E+00  0.0000E+00  9.0
       24    2    1    2    0    0 -5.11878825529E+01 -1.55775565803E+02  1.56900713121E+02  2.40585296849E+02  7.98575297668E+01  8.3689E-16  9.0
      -24    2    1    2    0    0  5.11878825529E+01  1.55775565803E+02 -1.66013018851E+02  2.48061209974E+02  8.41891634617E+01  3.2687E-13  9.0
       -1    1    3    3    0  500 -3.53725642106E+01 -1.37673568704E+01  2.09412003514E+01  4.33508049082E+01  0.00000000000E+00  0.0000E+00  9.0
        2    1    3    3  500    0 -1.58153183423E+01 -1.42008208933E+02  1.35959512770E+02  1.97234491941E+02  0.00000000000E+00  0.0000E+00  9.0
        3    1    4    4  504    0  4.31990059062E+01  5.20325190905E+01 -2.34780441892E+01  7.15873991226E+01  0.00000000000E+00  0.0000E+00  9.0
       -4    1    4    4    0  504  7.98887664671E+00  1.03743046713E+02 -1.42534974662E+02  1.76473810852E+02  5.87386917370E-01  0.0000E+00  9.0
</event>
<event>
 8    1   5.1859766E+00   2.6580000E+02  -1.0000000E+00   1.0110000E-01
       11   -1    0    0    0    0  0.00000000000E+00  0.00000000000E+00  2.49934639150E+02  2.49934639150E+02  0.00000000000E+00  0.0000E+00  9.0
      -11   -1    0    0    0    0  0.00000000000E+00  0.00000000000E+00 -7.06737139530E+01  7.06737139530E+01  0.00000000000E+00  0.0000E+00  9.0
       24    2    1    2    0    0 -7.95032588808E+01  3.51275544881E+01  1.53504049271E+01  1.19457585745E+02  8.04969974821E+01  1.5025E-13  9.0
      -24    2    1    2    0    0  7.95032588808E+01 -3.51275544881E+01  1.63910520265E+02  2.01150767354E+02  7.77191050931E+01  7.4660E-14  9.0
      -13    1    3    3    0    0 -5.33780214618E+01  1.60990034696E+01  4.79612415203E+01  7.35437485348E+01  1.05700000000E-01  0.0000E+00  9.0
       14    1    3    3    0    0 -2.61252374190E+01  1.90285510186E+01 -3.26108365932E+01  4.59138372103E+01  0.00000000000E+00  0.0000E+00  9.0
        3    1    4    4  500    0  2.00114673623E+01 -1.41766134940E+01  1.24239136819E+02  1.26636480975E+02  0.00000000000E+00  0.0000E+00  9.0
       -4    1    4    4    0  500  5.94917915185E+01 -2.09509409941E+01  3.96713834455E+01  7.45142863785E+01  5.87386917370E-01  0.0000E+00  9.0
</event>
<event>
 8    1   5.1859766E+00   4.9850000E+02  -1.0000000E+00   9.3520000E-02
       11   -1    0    0    0    0  0.00000000000E+00  0.00000000000E+00  2.48552996260E+02  2.48552996260E+02  0.00000000000E+00  0.0000E+00  9.0
      -11   -1    0    0    0    0  0.00000000000E+00  0.00000000000E+00 -2.49923777570E+02  2.49923777570E+02  0.00000000000E+00  0.0000E+00  9.0
       24    2    1    2    0    0  2.78955298026E+01  2.73462349182E+01 -2.33398647184E+02  2.49538507242E+02  7.91742441853E+01  1.4923E-14  9.0
      -24    2    1    2    0    0 -2.78955298026E+01 -2.73462349182E+01  2.32027865884E+02  2.48938266585E+02  8.12856252756E+01  9.9151E-14  9.0
       -1    1    3    3    0  500 -2.60409024056E+00  4.97993825613E+01 -1.46184091354E+02  1.54455651740E+02  0.00000000000E+00  0.0000E+00  9.0
        2    1    3    3  500    0  3.04996200431E+01 -2.24531476431E+01 -8.72145558302E+01  9.50828555025E+01  0.00000000000E+00  0.0000E+00  9.0
        1    1    4    4  504    0  2.56142217925E+01 -3.38025710749E+00  1.17126478978E+02  1.19942180128E+02  0.00000000000E+00  0.0000E+00  9.0
       -2    1    4    4    0  504 -5.35097515951E+01 -2.39659778107E+01  1.14901386906E+02  1.28996086456E+02  0.00000000000E+00  0.0000E+00  9.0
</event>
<event>
 8    1   5.1859766E+00   3.8090000E+02  -1.0000000E+00   9.6600000E-02
       11   -1    0    0    0    0  0.00000000000E+00  0.00000000000E+00  2.45698214770E+02  2.45698214770E+02  0.00000000000E+00  0.0000E+00  9.0
      -11   -1    0    0    0    0  0.00000000000E+00  0.00000000000E+00 -1.47658134630E+02  1.47658134630E+02  0.00000000000E+00  0.0000E+00  9.0
       24    2    1    2    0    0  3.04824350332E+00  5.69791484515E+00 -1.29177523253E+02  1.52197617599E+02  8.02217194220E+01  9.2775E-14  9.0
      -24    2    1    2    0    0 -3.04824350332E+00 -5.69791484515E+00  2.27217603393E+02  2.41158731803E+02  8.05477287769E+01  1.3234E-14  9.0
       -3    1    3    3    0  500  1.61414098916E+01 -1.13710732701E+01  1.46090716076E+00  1.97985017195E+01  0.00000000000E+00  0.0000E+00  9.0
        4    1    3    3  500    0 -1.30931663883E+01  1.70689881153E+01 -1.30638430413E+02  1.32399115879E+02  5.87386917370E-01  0.0000E+00  9.0
        3    1    4    4  504    0  1.03818603493E+01 -4.13062264484E+01  1.27400530057E+02  1.34331241439E+02  0.00000000000E+00  0.0000E+00  9.0
       -4    1    4    4    0  504 -1.34301038526E+01  3.56083116032E+01  9.98170733361E+01  1.06827490364E+02  5.87386917370E-01  0.0000E+00  9.0
</event>
<event>
 8    1   5.1859766E+00   4.8910000E+02  -1.0000000E+00   9.3740000E-02
       11   -1    0    0    0    0  0.00000000000E+00  0.00000000000E+00  2.49988402260E+02  2.49988402260E+02  0.00000000000E+00  0.0000E+00  9.0
      -11   -1    0    0    0    0  0.00000000000E+00  0.00000000000E+00 -2.39203854770E+02  2.39203854770E+02  0.00000000000E+00  0.0000E+00  9.0
       24    2    1    2    0    0  1.02481568938E+02  1.28583672049E+02 -1.54834115353E+02  2.42413700615E+02  8.80600152119E+01  1.0994E-13  9.0
      -24    2    1    2    0    0 -1.02481568938E+02 -1.28583672049E+02  1.65618662843E+02  2.46778556418E+02  8.02114813232E+01  3.2777E-14  9.0
       -3    1    3    3    0  500  1.08223460277E+02  9.56697973684E+01 -1.50692187531E+02  2.08741857005E+02  0.00000000000E+00  0.0000E+00  9.0
        4    1    3    3  500    0 -5.74189133846E+00  3.29138746810E+01 -4.14192782136E+00  3.36718436105E+01  5.87386917370E-01  0.0000E+00  9.0
        1    1    4    4  504    0 -4.25423803641E+00 -6.67367927147E+01  6.04075835300E+01  9.01164479496E+01  0.00000000000E+00  0.0000E+00  9.0
       -2    1    4    4    0  504 -9.82273309019E+01 -6.18468793348E+01  1.05211079313E+02  1.56662108468E+02  0.00000000000E+00  0.0000E+00  9.0
</event>
<event>
 8    1   5.1859766E+00   4.8320000E+02  -1.0000000E+00   9.3870000E-02
       11   -1    0    0    0    0  0.00000000000E+00  0.00000000000E+00  2.33624845270E+02  2.33624845270E+02  0.00000000000E+00  0.0000E+00  9.0
      -11   -1    0    0    0    0  0.00000000000E+00  0.00000000000E+00 -2.49898762040E+02  2.49898762040E+02  0.00000000000E+00  0.0000E+00  9.0
       24    2    1    2    0    0 -3.27832249468E+01  2.84577761990E+01 -2.31883496798E+02  2.49282122476E+02  8.05421357716E+01  1.9318E-13  9.0
      -24    2    1    2    0    0  3.27832249468E+01 -2.84577761990E+01  2.15609580028E+02  2.34241484826E+02  8.06039536834E+01  3.4699E-15  9.0
       -1    1    3    3    0  500 -5.32316691562E+01  3.74528165981E+01 -2.00203205199E+02  2.10517570393E+02  0.00000000000E+00  0.0000E+00  9.0
        2    1    3    3  500    0  2.04484442094E+01 -8.99504039917E+00 -3.16802915990E+01  3.87645520826E+01  0.00000000000E+00  0.0000E+00  9.0
        3    1    4    4  504    0 -8.57082829076E+00  1.60778350783E+01  1.21529854279E+01  2.19009345281E+01  0.00000000000E+00  0.0000E+00  9.0
       -4    1    4    4    0  504  4.13540532376E+01 -4.45356112772E+01  2.03456594600E+02  2.12340550298E+02  5.87386917370E-01  0.0000E+00  9.0
</event>
<event>
 8    1   5.1859766E+00   4.4400000E+02  -1.0000000E+00   9.4820000E-02
       11   -1    0    0    0    0  0.00000000000E+00  0.00000000000E+00  2.49995348500E+02  2.49995348500E+02  0.00000000000E+00  0.0000E+00  9.0
      -11   -1    0    0    0    0  0.00000000000E+00  0.00000000000E+00 -1.97107886380E+02  1.97107886380E+02  0.00000000000E+00  0.0000E+00  9.0
       24    2    1    2    0    0 -6.88656432008E+01  1.31463202975E+01 -1.69726555771E+02  2.00659126422E+02  8.08806449761E+01  7.8239E-14  9.0
      -24    2    1    2    0    0  6.88656432008E+01 -1.31463202975E+01  2.22614017901E+02  2.46444108455E+02  7.91352960165E+01  1.8504E-13  9.0
       -3    1    3    3    0  500 -3.58093790094E+01 -2.35916241062E+01 -1.31089446113E+02  1.37925049340E+02  0.00000000000E+00  0.0000E+00  9.0
        4    1    3    3  500    0 -3.30562641914E+01  3.67379444036E+01 -3.86371096573E+01  6.27340770822E+01  5.87386917370E-01  0.0000E+00  9.0
        3    1    4    4  504    0  7.39194523782E+01 -2.07939890021E+01  1.14045064983E+02  1.37487280377E+02  0.00000000000E+00  0.0000E+00  9.0
       -4    1    4    4    0  504 -5.05380917744E+00  7.64766870465E+00  1.08568952918E+02  1.08956828078E+02  5.87386917370E-01  0.0000E+00  9.0
</event>
<event>
 8    1   5.1859766E+00   3.4590000E+02  -1.0000000E+00   9.7760000E-02
       11   -1    0    0    0    0  0.00000000000E+00  0.00000000000E+00  1.27958365890E+02  1.27958365890E+02  0.00000000000E+00  0.0000E+00  9.0
      -11   -1    0    0    0    0  0.00000000000E+00  0.00000000000E+00 -2.33749126840E+02  2.33749126840E+02  0.00000000000E+00  0.0000E+00  9.0
       24    2    1    2    0    0  3.38065928760E+01 -1.07503493287E+02 -1.60933798065E+02  2.12284811512E+02  8.04068843338E+01  6.5532E-14  9.0
      -24    2    1    2    0    0 -3.38065928760E+01  1.07503493287E+02  5.51430371128E+01  1.49422681212E+02  8.11572321346E+01  3.4574E-14  9.0
      -13    1    3    3    0    0  4.42678333534E+01 -8.97982521789E+01 -1.63338479688E+02  1.91579845713E+02  1.05700000000E-01  0.0000E+00  9.0
       14    1    3    3    0    0 -1.04612404774E+01 -1.77052411081E+01  2.40468162313E+00  2.07049657988E+01  0.00000000000E+00  0.0000E+00  9.0
        3    1    4    4  500    0  1.06956645758E+01  2.38760881537E+01  4.76926362313E+01  5.43971725086E+01  0.00000000000E+00  0.0000E+00  9.0
       -4    1    4    4    0  500 -4.45022574518E+01  8.36274051333E+01  7.45040088151E+00  9.50255087033E+01  5.87386917370E-01  0.0000E+00  9.0
</event>
<event>
 8    1   5.1859766E+00   4.4900000E+02  -1.0000000E+00   9.4700000E-02
       11   -1    0    0    0    0  0.00000000000E+00  0.00000000000E+00  2.04954472790E+02  2.04954472790E+02  0.00000000000E+00  0.0000E+00  9.0
      -11   -1    0    0    0    0  0.00000000000E+00  0.00000000000E+00 -2.45912329730E+02  2.45912329730E+02  0.00000000000E+00  0.0000E+00  9.0
       24    2    1    2    0    0 -1.33865355732E+01  4.29132740193E+01 -2.25700635099E+02  2.44536939668E+02  8.26848822732E+01  1.1661E-13  9.0
      -24    2    1    2    0    0  1.33865355732E+01 -4.29132740193E+01  1.84742778149E+02  2.06329862852E+02  8.01334499745E+01  3.5417E-13  9.0
       -3    1    3    3    0  500 -3.34731924306E+01  5.83718061184E+01 -1.81636590040E+02  1.93699698508E+02  0.00000000000E+00  0.0000E+00  9.0
        4    1    3    3  500    0  2.00866568574E+01 -1.54585320990E+01 -4.40640450591E+01  5.08372411597E+01  5.87386917370E-01  0.0000E+00  9.0
        3    1    4    4  504    0  5.92823627300E+00 -4.78958677774E+01  1.89920503917E+02  1.95956515440E+02  0.00000000000E+00  0.0000E+00  9.0
       -4    1    4    4    0  504  7.45829930016E+00  4.98259375807E+00 -5.17772576813E+00  1.03733474120E+01  5.87386917370E-01  0.0000E+00  9.0
</event>
<event>
 8    1   5.1859766E+00   5.0000000E+02  -1.0000000E+00   9.3490000E-02
       11   -1    0    0    0    0  0.00000000000E+00  0.00000000000E+00  2.49999998810E+02  2.49999998810E+02  0.00000000000E+00  0.0000E+00  9.0
      -11   -1    0    0    0    0  0.00000000000E+00  0.00000000000E+00 -2.49999917610E+02  2.49999917610E+02  0.00000000000E+00  0.0000E+00  9.0
       24    2    1    2    0    0  9.77499925987E+00  2.79715027653E+00 -2.36449361188E+02  2.50008535018E+02  8.05766251182E+01  5.1770E-14  9.0
      -24    2    1    2    0    0 -9.77499925987E+00 -2.79715027653E+00  2.36449442378E+02  2.49991381404E+02  8.05231476967E+01  8.5039E-15  9.0
       -1    1    3    3    0  500 -8.40454426669E+00  1.44259874729E+01 -2.24924502919E+02  2.25543294053E+02  0.00000000000E+00  0.0000E+00  9.0
        2    1    3    3  500    0  1.81795435266E+01 -1.16288371964E+01 -1.15248582697E+01  2.44652409657E+01  0.00000000000E+00  0.0000E+00  9.0
        1    1    4    4  504    0 -1.40073237380E+01  1.01937305745E+01  2.35670389393E+02  2.36306262503E+02  0.00000000000E+00  0.0000E+00  9.0
       -2    1    4    4    0  504  4.23232447816E+00 -1.29908808510E+01  7.79052984829E-01  1.36851189007E+01  0.00000000000E+00  0.0000E+00  9.0
</event>
<event>
 8    1   5.1859766E+00   3.0400000E+02  -1.0000000E+00   9.9350000E-02
       11   -1    0    0    0    0  0.00000000000E+00  0.00000000000E+00  1.92003911280E+02  1.92003911280E+02  0.00000000000E+00  0.0000E+00  9.0
      -11   -1    0    0    0    0  0.00000000000E+00  0.00000000000E+00 -1.20317056090E+02  1.20317056090E+02  0.00000000000E+00  0.0000E+00  9.0
       24    2    1    2    0    0  2.51792770549E+01  2.46337143408E+00 -9.54423739329E+01  1.25923115951E+02  7.81493454675E+01  5.4332E-14  9.0
      -24    2    1    2    0    0 -2.51792770549E+01 -2.46337143408E+00  1.67129229126E+02  1.86397851432E+02  7.85615401978E+01  1.1888E-13  9.0
       -3    1    3    3    0  500  2.77496168691E+01  4.63080331037E+00 -1.08674959510E+02  1.12257438062E+02  0.00000000000E+00  0.0000E+00  9.0
        4    1    3    3  500    0 -2.57033981420E+00 -2.16743187628E+00  1.32325855776E+01  1.36656778887E+01  5.87386917370E-01  0.0000E+00  9.0
        3    1    4    4  504    0 -3.18985307007E+01  1.90802494557E+00  1.72708539995E+01  3.63240859201E+01  0.00000000000E+00  0.0000E+00  9.0
       -4    1    4    4    0  504  6.71925364579E+00 -4.37139637966E+00  1.49858375126E+02  1.50073765511E+02  5.87386917370E-01  0.0000E+00  9.0
</event>
<event>
 8    1   5.1859766E+00   4.5000000E+02  -1.0000000E+00   9.4670000E-02
       11   -1    0    0    0    0  0.00000000000E+00  0.00000000000E+00  2.02482560100E+02  2.02482560100E+02  0.00000000000E+00  0.0000E+00  9.0
      -11   -1    0    0    0    0  0.00000000000E+00  0.00000000000E+00 -2.50000000000E+02  2.50000000000E+02  0.00000000000E+00  0.0000E+00  9.0
       24    2    1    2    0    0  6.73057898993E+01 -9.77343922416E+01 -1.98094516146E+02  2.44700501943E+02  8.09618276916E+01  2.8796E-13  9.0
      -24    2    1    2    0    0 -6.73057898993E+01  9.77343922416E+01  1.50577076236E+02  2.07782058152E+02  8.01114662272E+01  6.6200E-14  9.0
       -1    1    3    3    0  500  4.14625277557E+01 -1.07211426473E+01 -1.10705474155E+02  1.18700404866E+02  0.00000000000E+00  0.0000E+00  9.0
        2    1    3    3  500    0  2.58432621436E+01 -8.70132495943E+01 -8.73890419911E+01  1.26000097077E+02  0.00000000000E+00  0.0000E+00  9.0
        1    1    4    4  504    0 -1.60172639202E+01  8.94260629757E+01  1.02885990610E+02  1.37255602970E+02  0.00000000000E+00  0.0000E+00  9.0
       -2    1    4    4    0  504 -5.12885259791E+01  8.30832926589E+00  4.76910856265E+01  7.05264551819E+01  0.00000000000E+00  0.0000E+00  9.0
</event>
<event>
 8    1   5.1859766E+00   4.8080000E+02  -1.0000000E+00   9.3930000E-02
       11   -1    0    0    0    0  0.00000000000E+00  0.00000000000E+00  2.49999671390E+02  2.49999671390E+02  0.00000000000E+00  0.0000E+00  9.0
      -11   -1    0    0    0    0  0.00000000000E+00  0.00000000000E+00 -2.31166311080E+02  2.31166311080E+02  0.00000000000E+00  0.0000E+00  9.0
       24    2    1    2    0    0 -6.28266082993E+01  7.36368989130E+01 -1.90252930583E+02  2.27969070316E+02  8.00258947668E+01  9.9475E-15  9.0
      -24    2    1    2    0    0  6.28266082993E+01 -7.36368989130E+01  2.09086290903E+02  2.53196912155E+02  1.04985826134E+02  4.9946E-14  9.0
       -3    1    3    3    0  500 -2.02529621453E+01  1.00896530587E+01 -1.26163373553E+02  1.28176364439E+02  0.00000000000E+00  0.0000E+00  9.0
        4    1    3    3  500    0 -4.25736461540E+01  6.35472458543E+01 -6.40895570304E+01  9.97927058770E+01  5.87386917370E-01  0.0000E+00  9.0
        1    1    4    4  504    0  2.24639313520E+01 -9.45306716952E+01  1.36330497454E+02  1.67411709981E+02  0.00000000000E+00  0.0000E+00  9.0
       -2    1    4    4    0  504  4.03626769473E+01  2.08937727822E+01  7.27557934498E+01  8.57852021734E+01  0.00000000000E+00  0.0000E+00  9.0
</event>
<event>
 8    1   5.1859766E+00   4.4470000E+02  -1.0000000E+00   9.4810000E-02
       11   -1    0    0    0    0  0.00000000000E+00  0.00000000000E+00  2.50000000000E+02  2.50000000000E+02  0.00000000000E+00  0.0000E+00  9.0
      -11   -1    0    0    0    0  0.00000000000E+00  0.00000000000E+00 -1.97715939740E+02  1.97715939740E+02  0.00000000000E+00  0.0000E+00  9.0
       24    2    1    2    0    0  9.69214646852E+01 -1.12899974247E+02 -1.18880679291E+02  2.07063460832E+02  8.12556853478E+01  5.6572E-15  9.0
      -24    2    1    2    0    0 -9.69214646852E+01  1.12899974247E+02  1.71164739541E+02  2.40652478906E+02  8.04740519640E+01  1.8431E-14  9.0
       -3    1    3    3    0  500 -5.89731339299E+00  6.83457777484E+00 -1.68945088206E+01  1.91550042261E+01  0.00000000000E+00  0.0000E+00  9.0
        4    1    3    3  500    0  1.02818778078E+02 -1.19734552022E+02 -1.01986170470E+02  1.87908456606E+02  5.87386917370E-01  0.0000E+00  9.0
        1    1    4    4  504    0 -6.56532739711E-01  2.41301101608E+01 -1.22328447930E+00  2.41700160639E+01  0.00000000000E+00  0.0000E+00  9.0
       -2    1    4    4    0  504 -9.62649319455E+01  8.87698640866E+01  1.72388024020E+02  2.16482462842E+02  0.00000000000E+00  0.0000E+00  9.0
</event>
<event>
 8    1   5.1859766E+00   4.5850000E+02  -1.0000000E+00   9.4460000E-02
       11   -1    0    0    0    0  0.00000000000E+00  0.00000000000E+00  2.49536362820E+02  2.49536362820E+02  0.00000000000E+00  0.0000E+00  9.0
      -11   -1    0    0    0    0  0.00000000000E+00  0.00000000000E+00 -2.10611912750E+02  2.10611912750E+02  0.00000000000E+00  0.0000E+00  9.0
       24    2    1    2    0    0 -5.39436450160E+01 -6.62157453305E+01 -1.79627868436E+02  2.14224013711E+02  7.95695617943E+01  1.3750E-13  9.0
      -24    2    1    2    0    0  5.39436450160E+01  6.62157453305E+01  2.18552318506E+02  2.45924261854E+02  7.36151130994E+01  2.8541E-14  9.0
       -1    1    3    3    0  500 -6.28619103069E+01 -7.01754355785E+01 -1.81305531416E+02  2.04323046297E+02  0.00000000000E+00  0.0000E+00  9.0
        2    1    3    3  500    0  8.91826529091E+00  3.95969024809E+00  1.67766297947E+00  9.90096741397E+00  0.00000000000E+00  0.0000E+00  9.0
        3    1    4    4  504    0  4.50636984167E+01  8.01447589390E+01  2.04537749929E+02  2.24253451359E+02  0.00000000000E+00  0.0000E+00  9.0
       -4    1    4    4    0  504  8.87994659931E+00 -1.39290136085E+01  1.40145685776E+01  2.16708104953E+01  5.87386917370E-01  0.0000E+00  9.0
</event>
<event>
 8    1   5.1859766E+00   4.9480000E+02  -1.0000000E+00   9.3610000E-02
       11   -1    0    0    0    0  0.00000000000E+00  0.00000000000E+00  2.44871202070E+02  2.44871202070E+02  0.00000000000E+00  0.0000E+00  9.0
      -11   -1    0    0    0    0  0.00000000000E+00  0.00000000000E+00 -2.49996453920E+02  2.49996453920E+02  0.00000000000E+00  0.0000E+00  9.0
       24    2    1    2    0    0 -6.29759447377E+01  8.29615257722E+01 -2.12463681627E+02  2.49322302895E+02  7.85634160172E+01  1.3239E-13  9.0
      -24    2    1    2    0    0  6.29759447377E+01 -8.29615257722E+01  2.07338429767E+02  2.45545353089E+02  8.03412197513E+01  2.7559E-15  9.0
       -3    1    3    3    0  500 -3.71669542559E+01  2.25790322629E+01 -1.58400144842E+02  1.64261380344E+02  0.00000000000E+00  0.0000E+00  9.0
        4    1    3    3  500    0 -2.58089904818E+01  6.03824935093E+01 -5.40635367848E+01  8.50609225506E+01  5.87386917370E-01  0.0000E+00  9.0
        1    1    4    4  504    0  5.06452717271E+01 -3.71157143518E+00  6.95751080183E+01  8.61360259507E+01  0.00000000000E+00  0.0000E+00  9.0
       -2    1    4    4    0  504  1.23306730106E+01 -7.92499543371E+01  1.37763321749E+02  1.59409327138E+02  0.00000000000E+00  0.0000E+00  9.0
</event>
<event>
 8    1   5.1859766E+00   4.9990000E+02  -1.0000000E+00   9.3490000E-02
       11   -1    0    0    0    0  0.00000000000E+00  0.00000000000E+00  2.49978036890E+02  2.49978036890E+02  0.00000000000E+00  0.0000E+00  9.0
      -11   -1    0    0    0    0  0.00000000000E+00  0.00000000000E+00 -2.49956552060E+02  2.49956552060E+02  0.00000000000E+00  0.0000E+00  9.0
       24    2    1    2    0    0 -1.51191516819E+01  6.07886279940E+01 -2.28726595619E+02  2.50017746428E+02  7.91781026814E+01  5.8897E-14  9.0
      -24    2    1    2    0    0  1.51191516819E+01 -6.07886279940E+01  2.28748080449E+02  2.49916842519E+02  7.87965597250E+01  1.0187E-13  9.0
       -3    1    3    3    0  500  1.69072132740E+01  6.63005541812E+01 -1.51934852716E+02  1.66630779915E+02  0.00000000000E+00  0.0000E+00  9.0
        4    1    3    3  500    0 -3.20263649559E+01 -5.51192618722E+00 -7.67917429036E+01  8.33869665125E+01  5.87386917370E-01  0.0000E+00  9.0
        3    1    4    4  504    0  3.16073365579E+01  5.61785822951E+00  6.71584627179E+01  7.44368401398E+01  0.00000000000E+00  0.0000E+00  9.0
       -4    1    4    4    0  504 -1.64881848760E+01 -6.64064862235E+01  1.61589617731E+02  1.75480002379E+02  5.87386917370E-01  0.0000E+00  9.0
</event>
<event>
 8    1   5.1859766E+00   3.1870000E+02  -1.0000000E+00   9.8760000E-02
       11   -1    0    0    0    0  0.00000000000E+00  0.00000000000E+00  1.01699963960E+02  1.01699963960E+02  0.00000000000E+00  0.0000E+00  9.0
      -11   -1    0    0    0    0  0.00000000000E+00  0.00000000000E+00 -2.49668263150E+02  2.49668263150E+02  0.00000000000E+00  0.0000E+00  9.0
       24    2    1    2    0    0 -3.43456863607E+00  1.33769378418E+01 -2.25049729055E+02  2.39463127342E+02  8.06502949840E+01  3.5036E-14  9.0
      -24    2    1    2    0    0  3.43456863607E+00 -1.33769378418E+01  7.70814298535E+01  1.11905099769E+02  7.99403890306E+01  1.7414E-13  9.0
       -1    1    3    3    0  500  2.28406105765E+01 -1.99309014033E-01 -1.49658807397E+01  2.73077059071E+01  0.00000000000E+00  0.0000E+00  9.0
        2    1    3    3  500    0 -2.62751792126E+01  1.35762468558E+01 -2.10083848315E+02  2.12155421435E+02  0.00000000000E+00  0.0000E+00  9.0
        1    1    4    4  504    0 -3.42028214039E+01 -6.67909270174E+00  6.13689753572E+01  7.05733264605E+01  0.00000000000E+00  0.0000E+00  9.0
       -2    1    4    4    0  504  3.76373900400E+01 -6.69784514008E+00  1.57124544963E+01  4.13317733087E+01  0.00000000000E+00  0.0000E+00  9.0
</event>
<event>
 8    1   5.1859766E+00   5.0000000E+02  -1.0000000E+00   9.3490000E-02
       11   -1    0    0    0    0  0.00000000000E+00  0.00000000000E+00  2.49991343360E+02  2.49991343360E+02  0.00000000000E+00  0.0000E+00  9.0
      -11   -1    0    0    0    0  0.00000000000E+00  0.00000000000E+00 -2.49999936060E+02  2.49999936060E+02  0.00000000000E+00  0.0000E+00  9.0
       24    2    1    2    0    0  5.35759939223E+01  5.15707452628E+01 -2.24377958548E+02  2.50114990027E+02  8.17441806028E+01  5.4158E-14  9.0
      -24    2    1    2    0    0 -5.35759939223E+01 -5.15707452628E+01  2.24369365848E+02  2.49876289401E+02  8.10346764191E+01  8.1779E-14  9.0
       -3    1    3    3    0  500 -8.03268171664E-02 -9.57058643907E+00  1.81232877003E+00  9.74100163002E+00  0.00000000000E+00  0.0000E+00  9.0
        4    1    3    3  500    0  5.36563207395E+01  6.11413317019E+01 -2.26190287318E+02  2.40373988397E+02  5.87386917370E-01  0.0000E+00  9.0
        1    1    4    4  504    0 -6.34002801769E+01 -6.41548747724E+01  1.61175741962E+02  1.84697220554E+02  0.00000000000E+00  0.0000E+00  9.0
       -2    1    4    4    0  504  9.82428625458E+00  1.25841295095E+01  6.31936238860E+01  6.51790688471E+01  0.00000000000E+00  0.0000E+00  9.0
</event>
<event>
 8    1   5.1859766E+00   4.8910000E+02  -1.0000000E+00   9.3740000E-02
       11   -1    0    0    0    0  0.00000000000E+00  0.00000000000E+00  2.41765408170E+02  2.41765408170E+02  0.00000000000E+00  0.0000E+00  9.0
      -11   -1    0    0    0    0  0.00000000000E+00  0.00000000000E+00 -2.47321156080E+02  2.47321156080E+02  0.00000000000E+00  0.0000E+00  9.0
       24    2    1    2    0    0  4.16385540864E+00  1.93119044843E+01 -2.30613453061E+02  2.48843204114E+02  9.13788167695E+01  3.6026E-15  9.0
      -24    2    1    2    0    0 -4.16385540864E+00 -1.93119044843E+01  2.25057705151E+02  2.40243360126E+02  8.17044312754E+01  2.4568E-13  9.0
       -3    1    3    3    0  500 -9.70115974972E+00  3.78085194553E+01 -2.19936739165E+02  2.23373601570E+02  0.00000000000E+00  0.0000E+00  9.0
        4    1    3    3  500    0  1.38650151584E+01 -1.84966149711E+01 -1.06767138964E+01  2.54696025439E+01  5.87386917370E-01  0.0000E+00  9.0
       13    1    4    4    0    0 -3.50287413987E+01  2.29089491730E+00  1.69631019251E+02  1.73225156338E+02  1.05700000000E-01  0.0000E+00  9.0
      -14    1    4    4    0    0  3.08648859901E+01 -2.16027994016E+01  5.54266859000E+01  6.70182037884E+01  0.00000000000E+00  0.0000E+00  9.0
</event>
<event>
 8    1   5.1859766E+00   4.9950000E+02  -1.0000000E+00   9.3500000E-02
       11   -1    0    0    0    0  0.00000000000E+00  0.00000000000E+00  2.49464696600E+02  2.49464696600E+02  0.00000000000E+00  0.0000E+00  9.0
      -11   -1    0    0    0    0  0.00000000000E+00  0.00000000000E+00 -2.50000000000E+02  2.50000000000E+02  0.00000000000E+00  0.0000E+00  9.0
       24    2    1    2    0    0  6.68903701897E+01 -5.56453553587E+01 -2.20207562623E+02  2.50219565257E+02  8.09180635200E+01  8.0343E-15  9.0
      -24    2    1    2    0    0 -6.68903701897E+01  5.56453553587E+01  2.19672259223E+02  2.49245131347E+02  7.93505313822E+01  2.6160E-13  9.0
       -3    1    3    3    0  500  4.92502657793E+01 -7.46845434216E+01 -1.92370036725E+02  2.12154662299E+02  0.00000000000E+00  0.0000E+00  9.0
        4    1    3    3  500    0  1.76401044104E+01  1.90391880630E+01 -2.78375258979E+01  3.80649029581E+01  5.87386917370E-01  0.0000E+00  9.0
       13    1    4    4    0    0 -6.48184751314E+01  5.89317201846E+01  1.15321625432E+02  1.44822204192E+02  1.05700000000E-01  0.0000E+00  9.0
      -14    1    4    4    0    0 -2.07189505829E+00 -3.28636482597E+00  1.04350633791E+02  1.04422927154E+02  0.00000000000E+00  0.0000E+00  9.0
</event>
<event>
 8    1   5.1859766E+00   4.4570000E+02  -1.0000000E+00   9.4780000E-02
       11   -1    0    0    0    0  0.00000000000E+00  0.00000000000E+00  1.98615873390E+02  1.98615873390E+02  0.00000000000E+00  0.0000E+00  9.0
      -11   -1    0    0    0    0  0.00000000000E+00  0.00000000000E+00 -2.49999999930E+02  2.49999999930E+02  0.00000000000E+00  0.0000E+00  9.0
       24    2    1    2    0    0 -5.21303240615E+01 -1.96387623295E+02  2.11343565917E+01  2.19220691732E+02  7.95322663107E+01  4.3230E-14  9.0
      -24    2    1    2    0    0  5.21303240615E+01  1.96387623295E+02 -7.25184831357E+01  2.29395181585E+02  7.79586407518E+01  1.7999E-13  9.0
       -3    1    3    3    0  500 -2.24113631536E+01 -1.35404723677E+02 -2.17526946705E+01  1.38960023453E+02  0.00000000000E+00  0.0000E+00  9.0
        4    1    3    3  500    0 -2.97189609078E+01 -6.09828996180E+01  4.28870512622E+01  8.02606682791E+01  5.87386917370E-01  0.0000E+00  9.0
       13    1    4    4    0    0  6.32820441437E+01  1.63883697157E+02 -8.18178606455E+01  1.93795399321E+02  1.05700000000E-01  0.0000E+00  9.0
      -14    1    4    4    0    0 -1.11517200822E+01  3.25039261386E+01  9.29937750976E+00  3.55997822646E+01  0.00000000000E+00  0.0000E+00  9.0
</event>
<event>
 8    1   5.1859766E+00   4.9170000E+02  -1.0000000E+00   9.3680000E-02
       11   -1    0    0    0    0  0.00000000000E+00  0.00000000000E+00  2.49958454860E+02  2.49958454860E+02  0.00000000000E+00  0.0000E+00  9.0
      -11   -1    0    0    0    0  0.00000000000E+00  0.00000000000E+00 -2.41765420600E+02  2.41765420600E+02  0.00000000000E+00  0.0000E+00  9.0
       24    2    1    2    0    0 -8.58421805350E+01  3.13452562484E+01 -2.09222345765E+02  2.42297157876E+02  8.11327165765E+01  2.1016E-14  9.0
      -24    2    1    2    0    0  8.58421805350E+01 -3.13452562484E+01  2.17415380035E+02  2.49426717578E+02  8.11962740383E+01  1.0092E-13  9.0
       -3    1    3    3    0  500 -2.25348114620E+01 -1.70008967686E+01 -1.41277188890E+01  3.15664483205E+01  0.00000000000E+00  0.0000E+00  9.0
        4    1    3    3  500    0 -6.33073690729E+01  4.83461530170E+01 -1.95094626876E+02  2.10730709555E+02  5.87386917370E-01  0.0000E+00  9.0
        1    1    4    4  504    0  8.92964566098E+01 -3.22530891240E+01  2.23242048364E+02  2.42592520657E+02  0.00000000000E+00  0.0000E+00  9.0
       -2    1    4    4    0  504 -3.45427607487E+00  9.07832875605E-01 -5.82666832914E+00  6.83419692058E+00  0.00000000000E+00  0.0000E+00  9.0
</event>
<event>
 8    1   5.1859766E+00   4.4330000E+02  -1.0000000E+00   9.4840000E-02
       11   -1    0    0    0    0  0.00000000000E+00  0.00000000000E+00  2.49888188880E+02  2.49888188880E+02  0.00000000000E+00  0.0000E+00  9.0
      -11   -1    0    0    0    0  0.00000000000E+00  0.00000000000E+00 -1.96614996810E+02  1.96614996810E+02  0.00000000000E+00  0.0000E+00  9.0
       24    2    1    2    0    0 -1.97099553708E+02  1.03229276712E+01 -3.56449572406E+01  2.15714345909E+02  7.94186322381E+01  2.0626E-13  9.0
      -24    2    1    2    0    0  1.97099553708E+02 -1.03229276712E+01  8.89181493106E+01  2.30788839780E+02  8.00140886498E+01  1.2720E-13  9.0
       -1    1    3    3    0  500 -1.13679401669E+02 -1.39856477508E+01  1.44079174984E+01  1.15439130253E+02  0.00000000000E+00  0.0000E+00  9.0
        2    1    3    3  500    0 -8.34201520388E+01  2.43085754220E+01 -5.00528747390E+01  1.00275215656E+02  0.00000000000E+00  0.0000E+00  9.0
        1    1    4    4  504    0  1.72568193308E+02  9.40634629907E+00  4.83908580531E+01  1.79471267437E+02  0.00000000000E+00  0.0000E+00  9.0
       -2    1    4    4    0  504  2.45313603994E+01 -1.97292739702E+01  4.05272912575E+01  5.13175723423E+01  0.00000000000E+00  0.0000E+00  9.0
</event>
<event>
 8    1   5.1859766E+00   4.5840000E+02  -1.0000000E+00   9.4460000E-02
       11   -1    0    0    0    0  0.00000000000E+00  0.00000000000E+00  2.49999595270E+02  2.49999595270E+02  0.00000000000E+00  0.0000E+00  9.0
      -11   -1    0    0    0    0  0.00000000000E+00  0.00000000000E+00 -2.10092221060E+02  2.10092221060E+02  0.00000000000E+00  0.0000E+00  9.0
       24    2    1    2    0    0 -2.17224091274E+01 -1.53852322485E+02 -1.29377151652E+02  2.16619001036E+02  7.77363753208E+01  3.2016E-14  9.0
      -24    2    1    2    0    0  2.17224091274E+01  1.53852322485E+02  1.69284525872E+02  2.43472815293E+02  8.04944774176E+01  5.1625E-14  9.0
       -1    1    3    3    0  500  2.25444258310E+01 -2.50843912983E+01 -4.57031217817E+01  5.68001158753E+01  0.00000000000E+00  0.0000E+00  9.0
        2    1    3    3  500    0 -4.42668349584E+01 -1.28767931187E+02 -8.36740298704E+01  1.59818885161E+02  0.00000000000E+00  0.0000E+00  9.0
        1    1    4    4  504    0  6.57569092322E-01  2.47133502859E+01 -5.31378232828E+00  2.52867230399E+01  0.00000000000E+00  0.0000E+00  9.0
       -2    1    4    4    0  504  2.10648400351E+01  1.29138972199E+02  1.74598308200E+02  2.18186092253E+02  0.00000000000E+00  0.0000E+00  9.0
</event>
<event>
 8    1   5.1859766E+00   4.9960000E+02  -1.0000000E+00   9.3500000E-02
       11   -1    0    0    0    0  0.00000000000E+00  0.00000000000E+00  2.49999999950E+02  2.49999999950E+02  0.00000000000E+00  0.0000E+00  9.0
      -11   -1    0    0    0    0  0.00000000000E+00  0.00000000000E+00 -2.49587855460E+02  2.49587855460E+02  0.00000000000E+00  0.0000E+00  9.0
       24    2    1    2    0    0  5.92660188012E+01 -3.42121518406E+01 -2.26287552429E+02  2.49924458346E+02  8.10755584451E+01  8.0857E-14  9.0
      -24    2    1    2    0    0 -5.92660188012E+01  3.42121518406E+01  2.26699696919E+02  2.49663397074E+02  7.90956821652E+01  4.5398E-14  9.0
       -1    1    3    3    0  500  1.35287854775E+01 -5.27962725470E+01 -9.30786476677E+01  1.07861527353E+02  0.00000000000E+00  0.0000E+00  9.0
        2    1    3    3  500    0  4.57372333237E+01  1.85841207065E+01 -1.33208904761E+02  1.42062930993E+02  0.00000000000E+00  0.0000E+00  9.0
        3    1    4    4  504    0 -3.78455011045E+01 -1.97850383287E+01  1.30219152269E+02  1.37042903185E+02  0.00000000000E+00  0.0000E+00  9.0
       -4    1    4    4    0  504 -2.14205176967E+01  5.39971901693E+01  9.64805446497E+01  1.12620493889E+02  5.87386917370E-01  0.0000E+00  9.0
</event>
<event>
 8    1   5.1859766E+00   1.8400000E+02  -1.0000000E+00   1.0610000E-01
       11   -1    0    0    0    0  0.00000000000E+00  0.00000000000E+00  2.41077607480E+02  2.41077607480E+02  0.00000000000E+00  0.0000E+00  9.0
      -11   -1    0    0    0    0  0.00000000000E+00  0.00000000000E+00 -3.50899753330E+01  3.50899753330E+01  0.00000000000E+00  0.0000E+00  9.0
       24    2    1    2    0    0  3.48286361718E+00  4.18001381344E+01  7.36027410818E+01  1.15904590509E+02  7.91020146350E+01  1.9208E-13  9.0
      -24    2    1    2    0    0 -3.48286361718E+00 -4.18001381344E+01  1.32384891061E+02  1.60262992300E+02  7.99942837502E+01  1.1109E-14  9.0
       -3    1    3    3    0  500  2.38340259189E+01  2.42612079295E+01  8.11532115060E+01  8.79915378854E+01  0.00000000000E+00  0.0000E+00  9.0
        4    1    3    3  500    0 -2.03511623017E+01  1.75389302049E+01 -7.55047042419E+00  2.79130526238E+01  5.87386917370E-01  0.0000E+00  9.0
        3    1    4    4  504    0  2.79148863737E+01 -2.98935384624E+01  2.54360725277E+01  4.81649074399E+01  0.00000000000E+00  0.0000E+00  9.0
       -4    1    4    4    0  504 -3.13977499909E+01 -1.19065996720E+01  1.06948818534E+02  1.12098084860E+02  5.87386917370E-01  0.0000E+00  9.0
</event>
<event>
 8    1   5.1859766E+00   4.9090000E+02  -1.0000000E+00   9.3690000E-02
       11   -1    0    0    0    0  0.00000000000E+00  0.00000000000E+00  2.49999694310E+02  2.49999694310E+02  0.00000000000E+00  0.0000E+00  9.0
      -11   -1    0    0    0    0  0.00000000000E+00  0.00000000000E+00 -2.41012055610E+02  2.41012055610E+02  0.00000000000E+00  0.0000E+00  9.0
       24    2    1    2    0    0 -1.39645704284E+02 -8.87141853613E+01 -1.57802943592E+02  2.42909520202E+02  8.20495983501E+01  1.8312E-13  9.0
      -24    2    1    2    0    0  1.39645704284E+02  8.87141853613E+01  1.66790582292E+02  2.48102229709E+02  7.97777452419E+01  1.0605E-13  9.0
       -3    1    3    3    0  500 -1.16119458897E+01  1.47973050278E+01 -8.46251155153E+00  2.06255090893E+01  0.00000000000E+00  0.0000E+00  9.0
        4    1    3    3  500    0 -1.28033758394E+02 -1.03511490389E+02 -1.49340432040E+02  2.22284011113E+02  5.87386917370E-01  0.0000E+00  9.0
        1    1    4    4  504    0  6.51442569849E+01  3.58976814728E+01  2.31699622685E+01  7.79054870003E+01  0.00000000000E+00  0.0000E+00  9.0
       -2    1    4    4    0  504  7.45014472991E+01  5.28165038886E+01  1.43620620023E+02  1.70196742708E+02  0.00000000000E+00  0.0000E+00  9.0
</event>
<event>
 8    1   5.1859766E+00   4.9370000E+02  -1.0000000E+00   9.3630000E-02
       11   -1    0    0    0    0  0.00000000000E+00  0.00000000000E+00  2.46982873590E+02  2.46982873590E+02  0.00000000000E+00  0.0000E+00  9.0
      -11   -1    0    0    0    0  0.00000000000E+00  0.00000000000E+00 -2.46718332310E+02  2.46718332310E+02  0.00000000000E+00  0.0000E+00  9.0
       24    2    1    2    0    0 -2.70756092100E+01 -2.86420037716E+00 -2.31445163874E+02  2.46554903091E+02  8.05056774362E+01  2.3988E-14  9.0
      -24    2    1    2    0    0  2.70756092100E+01  2.86420037716E+00  2.31709705154E+02  2.47146302803E+02  8.15513045188E+01  6.6540E-14  9.0
      -13    1    3    3    0    0 -2.30807869805E+01 -3.43135385846E+01 -6.44444764977E+01  7.65718184542E+01  1.05700000000E-01  0.0000E+00  9.0
       14    1    3    3    0    0 -3.99482222951E+00  3.14493382074E+01 -1.67000687377E+02  1.69983084637E+02  0.00000000000E+00  0.0000E+00  9.0
        1    1    4    4  500    0 -8.86290463932E+00 -2.09105966822E+01  1.75704726079E+01  2.87145544962E+01  0.00000000000E+00  0.0000E+00  9.0
       -2    1    4    4    0  500  3.59385138493E+01  2.37747970593E+01  2.14139232546E+02  2.18431748307E+02  0.00000000000E+00  0.0000E+00  9.0
</event>
<event>
 8    1   5.1859766E+00   3.7860000E+02  -1.0000000E+00   9.6670000E-02
       11   -1    0    0    0    0  0.00000000000E+00  0.00000000000E+00  2.47725299240E+02  2.47725299240E+02  0.00000000000E+00  0.0000E+00  9.0
      -11   -1    0    0    0    0  0.00000000000E+00  0.00000000000E+00 -1.44633523630E+02  1.44633523630E+02  0.00000000000E+00  0.0000E+00  9.0
       24    2    1    2    0    0 -5.61088277560E+01 -3.77762208162E+01 -1.06800208683E+02  1.57525984484E+02  9.39835506962E+01  1.4642E-14  9.0
      -24    2    1    2    0    0  5.61088277560E+01  3.77762208162E+01  2.09891984293E+02  2.34832838388E+02  8.07252965521E+01  2.4733E-14  9.0
       -1    1    3    3    0  500 -4.76967224828E+01 -4.65695809269E+01 -1.21413236590E+02  1.38509484233E+02  0.00000000000E+00  0.0000E+00  9.0
        2    1    3    3  500    0 -8.41210527325E+00  8.79336011071E+00  1.46130279068E+01  1.90165002503E+01  0.00000000000E+00  0.0000E+00  9.0
        1    1    4    4  504    0  4.84084173086E+01  5.44420091461E+01  1.01737385263E+02  1.25131142352E+02  0.00000000000E+00  0.0000E+00  9.0
       -2    1    4    4    0  504  7.70041044740E+00 -1.66657883298E+01  1.08154599031E+02  1.09701696036E+02  0.00000000000E+00  0.0000E+00  9.0
</event>
<event>
 8    1   5.1859766E+00   4.6930000E+02  -1.0000000E+00   9.4200000E-02
       11   -1    0    0    0    0  0.00000000000E+00  0.00000000000E+00  2.21311876780E+02  2.21311876780E+02  0.00000000000E+00  0.0000E+00  9.0
      -11   -1    0    0    0    0  0.00000000000E+00  0.00000000000E+00 -2.48741436050E+02  2.48741436050E+02  0.00000000000E+00  0.0000E+00  9.0
       24    2    1    2    0    0  5.20726558338E+01  3.68637059048E+01 -2.24897222731E+02  2.47285664292E+02  8.06284358868E+01  1.3287E-13  9.0
      -24    2    1    2    0    0 -5.20726558338E+01 -3.68637059048E+01  1.97467663471E+02  2.22767648536E+02  8.10027951295E+01  7.8562E-14  9.0
       -3    1    3    3    0  500  1.41364674074E+01  3.46111222292E+01 -2.78845805911E+01  4.66403186896E+01  0.00000000000E+00  0.0000E+00  9.0
        4    1    3    3  500    0  3.79361884264E+01  2.25258367561E+00 -1.97012642140E+02  2.00645345603E+02  5.87386917370E-01  0.0000E+00  9.0
        1    1    4    4  504    0 -6.55182586680E+01 -5.02063059398E+00  1.52466545635E+02  1.66023782900E+02  0.00000000000E+00  0.0000E+00  9.0
       -2    1    4    4    0  504  1.34456028342E+01 -3.18430753108E+01  4.50011178363E+01  5.67438656362E+01  0.00000000000E+00  0.0000E+00  9.0
</event>
<event>
 8    1   5.1859766E+00   4.8910000E+02  -1.0000000E+00   9.3740000E-02
       11   -1    0    0    0    0  0.00000000000E+00  0.00000000000E+00  2.39202693740E+02  2.39202693740E+02  0.00000000000E+00  0.0000E+00  9.0
      -11   -1    0    0    0    0  0.00000000000E+00  0.00000000000E+00 -2.50000000000E+02  2.50000000000E+02  0.00000000000E+00  0.0000E+00  9.0
       24    2    1    2    0    0 -1.30395239600E+01 -1.82843215307E+01 -2.35464081853E+02  2.49642565775E+02  7.98356512160E+01  5.8999E-14  9.0
      -24    2    1    2    0    0  1.30395239600E+01  1.82843215307E+01  2.24666775593E+02  2.39560127967E+02  8.00596606114E+01  1.0571E-13  9.0
       -3    1    3    3    0  500  3.04565251541E+01  8.51966801994E+00 -9.88635808194E+01  1.03798806737E+02  0.00000000000E+00  0.0000E+00  9.0
        4    1    3    3  500    0 -4.34960491141E+01 -2.68039895506E+01 -1.36600501034E+02  1.45843759038E+02  5.87386917370E-01  0.0000E+00  9.0
        1    1    4    4  504    0  3.93114112657E+01  8.89522566442E+00  1.93827370142E+02  1.97973638426E+02  0.00000000000E+00  0.0000E+00  9.0
       -2    1    4    4    0  504 -2.62718873057E+01  9.38909586625E+00  3.08394054508E+01  4.15864895411E+01  0.00000000000E+00  0.0000E+00  9.0
</event>
<event>
 8    1   5.1859766E+00   4.0710000E+02  -1.0000000E+00   9.5820000E-02
       11   -1    0    0    0    0  0.00000000000E+00  0.00000000000E+00  1.88179984300E+02  1.88179984300E+02  0.00000000000E+00  0.0000E+00  9.0
      -11   -1    0    0    0    0  0.00000000000E+00  0.00000000000E+00 -2.20156259150E+02  2.20156259150E+02  0.00000000000E+00  0.0000E+00  9.0
       24    2    1    2    0    0  1.23184607074E+02  1.00601393609E+02 -1.14552122634E+02  2.11984450867E+02  8.07473268503E+01  3.4601E-13  9.0
      -24    2    1    2    0    0 -1.23184607074E+02 -1.00601393609E+02  8.25758477836E+01  1.96351792593E+02  8.02506573258E+01  1.1463E-13  9.0
      -13    1    3    3    0    0  1.23789199479E+01  5.76433558488E+01 -3.01390046034E+01  6.62145369504E+01  1.05700000000E-01  0.0000E+00  9.0
       14    1    3    3    0    0  1.10805687126E+02  4.29580377604E+01 -8.44131180302E+01  1.45769913916E+02  0.00000000000E+00  0.0000E+00  9.0
        3    1    4    4  500    0 -9.99905739934E+01 -1.13597632063E+02  6.67246443549E+01  1.65392608850E+02  0.00000000000E+00  0.0000E+00  9.0
       -4    1    4    4    0  500 -2.31940330801E+01  1.29962384543E+01  1.58512034287E+01  3.09591837426E+01  5.87386917370E-01  0.0000E+00  9.0
</event>
<event>
 8    1   5.1859766E+00   2.8950000E+02  -1.0000000E+00   9.9960000E-02
       11   -1    0    0    0    0  0.00000000000E+00  0.00000000000E+00  8.47517988940E+01  8.47517988940E+01  0.00000000000E+00  0.0000E+00  9.0
      -11   -1    0    0    0    0  0.00000000000E+00  0.00000000000E+00 -2.47234584230E+02  2.47234584230E+02  0.00000000000E+00  0.0000E+00  9.0
       24    2    1    2    0    0 -4.97104267458E+01 -1.96427015360E+00 -2.06253563942E+02  2.26308527260E+02  7.87402818601E+01  1.8677E-14  9.0
      -24    2    1    2    0    0  4.97104267458E+01  1.96427015360E+00  4.37707786147E+01  1.05677855856E+02  8.23221918639E+01  8.7164E-14  9.0
      -13    1    3    3    0    0 -2.19479337545E+01 -3.44473742549E+00 -4.52478978918E+00  2.26729554128E+01  1.05700000000E-01  0.0000E+00  9.0
       14    1    3    3    0    0 -2.77624929913E+01  1.48046727189E+00 -2.01728774153E+02  2.03635571847E+02  0.00000000000E+00  0.0000E+00  9.0
        3    1    4    4  500    0 -1.67967142562E+01  1.82739863382E+01  8.03064912590E-01  2.48337089406E+01  0.00000000000E+00  0.0000E+00  9.0
       -4    1    4    4    0  500  6.65071410020E+01 -1.63097161846E+01  4.29677137021E+01  8.08441469152E+01  5.87386917370E-01  0.0000E+00  9.0
</event>
<event>
 8    1   5.1859766E+00   4.9450000E+02  -1.0000000E+00   9.3610000E-02
       11   -1    0    0    0    0  0.00000000000E+00  0.00000000000E+00  2.50000000000E+02  2.50000000000E+02  0.00000000000E+00  0.0000E+00  9.0
      -11   -1    0    0    0    0  0.00000000000E+00  0.00000000000E+00 -2.44534363000E+02  2.44534363000E+02  0.00000000000E+00  0.0000E+00  9.0
       24    2    1    2    0    0 -2.31207176039E+01  1.04666167081E+01 -2.29758794381E+02  2.43868168030E+02  7.77075423285E+01  3.0111E-13  9.0
      -24    2    1    2    0    0  2.31207176039E+01 -1.04666167081E+01  2.35224431381E+02  2.50666194979E+02  8.28184190790E+01  1.2430E-14  9.0
       -3    1    3    3    0  500 -4.21008329735E+01 -1.85198760114E+01 -1.10858400251E+02  1.20021043367E+02  0.00000000000E+00  0.0000E+00  9.0
        4    1    3    3  500    0  1.89801153697E+01  2.89864927195E+01 -1.18900394130E+02  1.23847124663E+02  5.87386917370E-01  0.0000E+00  9.0
        1    1    4    4  504    0  2.36721384624E+01  3.39219326140E+01  9.59073331614E+01  1.04447518907E+02  0.00000000000E+00  0.0000E+00  9.0
       -2    1    4    4    0  504 -5.51420858580E-01 -4.43885493221E+01  1.39317098220E+02  1.46218676072E+02  0.00000000000E+00  0.0000E+00  9.0
</event>
<event>
 8    1   5.1859766E+00   4.9150000E+02  -1.0000000E+00   9.3680000E-02
       11   -1    0    0    0    0  0.00000000000E+00  0.00000000000E+00  2.42962125530E+02  2.42962125530E+02  0.00000000000E+00  0.0000E+00  9.0
      -11   -1    0    0    0    0  0.00000000000E+00  0.00000000000E+00 -2.48616321410E+02  2.48616321410E+02  0.00000000000E+00  0.0000E+00  9.0
       24    2    1    2    0    0 -5.27855248966E+01 -1.12829596084E+02 -1.99105674564E+02  2.47902913072E+02  7.93470558665E+01  1.4685E-13  9.0
      -24    2    1    2    0    0  5.27855248966E+01  1.12829596084E+02  1.93451478684E+02  2.43675533876E+02  8.02337947101E+01  1.2080E-14  9.0
       -1    1    3    3    0  500 -3.92274531606E+00 -4.90221065087E+01 -2.29296991734E+01  5.42616435574E+01  0.00000000000E+00  0.0000E+00  9.0
        2    1    3    3  500    0 -4.88627795805E+01 -6.38074895757E+01 -1.76175975391E+02  1.93641269515E+02  0.00000000000E+00  0.0000E+00  9.0
        1    1    4    4  504    0  4.59985320820E+01  4.36930410810E+01  3.93904218269E+01  7.46763156851E+01  0.00000000000E+00  0.0000E+00  9.0
       -2    1    4    4    0  504  6.78699281454E+00  6.91365550034E+01  1.54061056857E+02  1.68999218191E+02  0.00000000000E+00  0.0000E+00  9.0
</event>
<event>
 8    1   5.1859766E+00   5.0000000E+02  -1.0000000E+00   9.3490000E-02
       11   -1    0    0    0    0  0.00000000000E+00  0.00000000000E+00  2.49985515450E+02  2.49985515450E+02  0.00000000000E+00  0.0000E+00  9.0
      -11   -1    0    0    0    0  0.00000000000E+00  0.00000000000E+00 -2.49999947180E+02  2.49999947180E+02  0.00000000000E+00  0.0000E+00  9.0
       24    2    1    2    0    0 -2.92648040585E+01  1.20677118875E+00 -2.34980980814E+02  2.49852974412E+02  7.97029637141E+01  1.1037E-14  9.0
      -24    2    1    2    0    0  2.92648040585E+01 -1.20677118875E+00  2.34966549084E+02  2.50132488218E+02  8.06169797257E+01  2.5685E-14  9.0
       -1    1    3    3    0  500  1.00253923832E+01  3.17421231576E+01 -6.96481524659E+01  7.71941449652E+01  0.00000000000E+00  0.0000E+00  9.0
        2    1    3    3  500    0 -3.92901964416E+01 -3.05353519689E+01 -1.65332828348E+02  1.72658829447E+02  0.00000000000E+00  0.0000E+00  9.0
        3    1    4    4  504    0  2.15398944969E+01  3.28290666913E+01  1.85375292381E+02  1.89488030493E+02  0.00000000000E+00  0.0000E+00  9.0
       -4    1    4    4    0  504  7.72490956159E+00 -3.40358378800E+01  4.95912567037E+01  6.06444577251E+01  5.87386917370E-01  0.0000E+00  9.0
</event>
<event>
 8    1   5.1859766E+00   4.8100000E+02  -1.0000000E+00   9.3920000E-02
       11   -1    0    0    0    0  0.00000000000E+00  0.00000000000E+00  2.31325545500E+02  2.31325545500E+02  0.00000000000E+00  0.0000E+00  9.0
      -11   -1    0    0    0    0  0.00000000000E+00  0.00000000000E+00 -2.49992217600E+02  2.49992217600E+02  0.00000000000E+00  0.0000E+00  9.0
       24    2    1    2    0    0 -1.84739061267E+02 -7.48670292575E+01 -1.16405718127E+02  2.44840660620E+02  8.16275998198E+01  2.1888E-14  9.0
      -24    2    1    2    0    0  1.84739061267E+02  7.48670292575E+01  9.77390460252E+01  2.36477102489E+02  8.14549326666E+01  2.9814E-14  9.0
       -3    1    3    3    0  500 -7.91158904439E+01 -7.51099689133E+01 -6.88750479453E+01  1.29013967385E+02  0.00000000000E+00  0.0000E+00  9.0
        4    1    3    3  500    0 -1.05623170823E+02  2.42939655833E-01 -4.75306701819E+01  1.15826693235E+02  5.87386917370E-01  0.0000E+00  9.0
        3    1    4    4  504    0  1.29684198863E+02  4.99214754530E+01  1.06925579471E+02  1.75337459464E+02  0.00000000000E+00  0.0000E+00  9.0
       -4    1    4    4    0  504  5.50548624042E+01  2.49455538045E+01 -9.18653344630E+00  6.11396430241E+01  5.87386917370E-01  0.0000E+00  9.0
</event>
<event>
 8    1   5.1859766E+00   4.6520000E+02  -1.0000000E+00   9.4300000E-02
       11   -1    0    0    0    0  0.00000000000E+00  0.00000000000E+00  2.49825011840E+02  2.49825011840E+02  0.00000000000E+00  0.0000E+00  9.0
      -11   -1    0    0    0    0  0.00000000000E+00  0.00000000000E+00 -2.16568768980E+02  2.16568768980E+02  0.00000000000E+00  0.0000E+00  9.0
       24    2    1    2    0    0 -1.05977908864E+01 -5.50554004773E+00 -2.02454951238E+02  2.17009529407E+02  7.72172547407E+01  1.9501E-13  9.0
      -24    2    1    2    0    0  1.05977908864E+01  5.50554004773E+00  2.35711194098E+02  2.49384251407E+02  8.05612418188E+01  4.0876E-14  9.0
       -1    1    3    3    0  500  2.83063454724E+01  1.00941258064E+01 -4.53081382907E+01  5.43688142704E+01  0.00000000000E+00  0.0000E+00  9.0
        2    1    3    3  500    0 -3.89041363588E+01 -1.55996658541E+01 -1.57146812948E+02  1.62640715137E+02  0.00000000000E+00  0.0000E+00  9.0
        3    1    4    4  504    0 -2.72347987757E+01 -2.04869724560E+01  1.24278796039E+02  1.28866867152E+02  0.00000000000E+00  0.0000E+00  9.0
       -4    1    4    4    0  504  3.78325896621E+01  2.59925125037E+01  1.11432398060E+02  1.20517384254E+02  5.87386917370E-01  0.0000E+00  9.0
</event>
<event>
 8    1   5.1859766E+00   4.9240000E+02  -1.0000000E+00   9.3660000E-02
       11   -1    0    0    0    0  0.00000000000E+00  0.00000000000E+00  2.45339242130E+02  2.45339242130E+02  0.00000000000E+00  0.0000E+00  9.0
      -11   -1    0    0    0    0  0.00000000000E+00  0.00000000000E+00 -2.47091030610E+02  2.47091030610E+02  0.00000000000E+00  0.0000E+00  9.0
       24    2    1    2    0    0  1.12240638169E+02 -4.13683270125E+01 -2.01183004619E+02  2.47603059804E+02  8.07674101372E+01  9.8588E-14  9.0
      -24    2    1    2    0    0 -1.12240638169E+02  4.13683270125E+01  1.99431216139E+02  2.44827212936E+02  7.65392375649E+01  6.0065E-14  9.0
       -1    1    3    3    0  500  9.50293506114E+00  1.52073799633E+01 -4.31180880794E+00  1.84434778532E+01  0.00000000000E+00  0.0000E+00  9.0
        2    1    3    3  500    0  1.02737703108E+02 -5.65757069759E+01 -1.96871195811E+02  2.29159581950E+02  0.00000000000E+00  0.0000E+00  9.0
        3    1    4    4  504    0 -1.00807222203E+02  6.20425660454E+01  1.67335997810E+02  2.04970027596E+02  0.00000000000E+00  0.0000E+00  9.0
       -4    1    4    4    0  504 -1.14334159664E+01 -2.06742390329E+01  3.20952183286E+01  3.98571853397E+01  5.87386917370E-01  0.0000E+00  9.0
</event>
<event>
 8    1   5.1859766E+00   4.9360000E+02  -1.0000000E+00   9.3630000E-02
       11   -1    0    0    0    0  0.00000000000E+00  0.00000000000E+00  2.43609568410E+02  2.43609568410E+02  0.00000000000E+00  0.0000E+00  9.0
      -11   -1    0    0    0    0  0.00000000000E+00  0.00000000000E+00 -2.49985320710E+02  2.49985320710E+02  0.00000000000E+00  0.0000E+00  9.0
       24    2    1    2    0    0 -2.97865293034E+01  1.97975480641E+02 -1.28162856093E+02  2.47741552789E+02  6.97755761952E+01  1.4532E-14  9.0
      -24    2    1    2    0    0  2.97865293034E+01 -1.97975480641E+02  1.21787103783E+02  2.45853336345E+02  7.43655570887E+01  1.2291E-14  9.0
       -3    1    3    3    0  500  1.01770643441E+01  1.16313014145E+02 -9.64765081012E+01  1.51459587064E+02  0.00000000000E+00  0.0000E+00  9.0
        4    1    3    3  500    0 -3.99635936475E+01  8.16624664964E+01 -3.16863479920E+01  9.62819657255E+01  5.87386917370E-01  0.0000E+00  9.0
        3    1    4    4  504    0  3.24876737933E+01 -1.95099268591E+02  9.61689438756E+01  2.19926440701E+02  0.00000000000E+00  0.0000E+00  9.0
       -4    1    4    4    0  504 -2.70114448986E+00 -2.87621205041E+00  2.56181599077E+01  2.59268956445E+01  5.87386917370E-01  0.0000E+00  9.0
</event>
<event>
 8    1   5.1859766E+00   4.5020000E+02  -1.0000000E+00   9.4660000E-02
       11   -1    0    0    0    0  0.00000000000E+00  0.00000000000E+00  2.04867178370E+02  2.04867178370E+02  0.00000000000E+00  0.0000E+00  9.0
      -11   -1    0    0    0    0  0.00000000000E+00  0.00000000000E+00 -2.47380263760E+02  2.47380263760E+02  0.00000000000E+00  0.0000E+00  9.0
       24    2    1    2    0    0 -1.40241821599E+02  1.84808893474E+01 -1.77733676487E+02  2.40823336394E+02  7.99831719669E+01  4.2421E-14  9.0
      -24    2    1    2    0    0  1.40241821599E+02 -1.84808893474E+01  1.35220591087E+02  2.11424105738E+02  8.00389432510E+01  3.6036E-13  9.0
       -1    1    3    3    0  500 -4.79399842178E+01  5.81399767228E+00 -1.24460697464E+02  1.33500973288E+02  0.00000000000E+00  0.0000E+00  9.0
        2    1    3    3  500    0 -9.23018373808E+01  1.26668916751E+01 -5.32729790234E+01  1.07322363106E+02  0.00000000000E+00  0.0000E+00  9.0
        3    1    4    4  504    0  8.39840346087E+01 -4.65740289157E+01  5.94024361420E+01  1.12920802593E+02  0.00000000000E+00  0.0000E+00  9.0
       -4    1    4    4    0  504  5.62577869899E+01  2.80931395684E+01  7.58181549450E+01  9.85033031449E+01  5.87386917370E-01  0.0000E+00  9.0
</event>
<event>
 8    1   5.1859766E+00   2.7150000E+02  -1.0000000E+00   1.0080000E-01
       11   -1    0    0    0    0  0.00000000000E+00  0.00000000000E+00  7.63375374240E+01  7.63375374240E+01  0.00000000000E+00  0.0000E+00  9.0
      -11   -1    0    0    0    0  0.00000000000E+00  0.00000000000E+00 -2.41372762650E+02  2.41372762650E+02  0.00000000000E+00  0.0000E+00  9.0
       24    2    1    2    0    0 -1.87881471317E+01 -3.98077067530E+01 -1.97789184124E+02  2.19111636841E+02  8.33768556185E+01  4.3602E-14  9.0
      -24    2    1    2    0    0  1.87881471317E+01  3.98077067530E+01  3.27539588973E+01  9.85986632335E+01  8.19220762580E+01  3.4929E-15  9.0
       -3    1    3    3    0  500  2.98565752941E+01 -2.87005452929E+01 -6.31079167357E+01  7.54834123707E+01  0.00000000000E+00  0.0000E+00  9.0
        4    1    3    3  500    0 -4.86447224258E+01 -1.11071614601E+01 -1.34681267389E+02  1.43628224470E+02  5.87386917370E-01  0.0000E+00  9.0
        3    1    4    4  504    0 -6.14508373963E+00  2.28717883698E+01  5.58223033188E+01  6.06383567160E+01  0.00000000000E+00  0.0000E+00  9.0
       -4    1    4    4    0  504  2.49332308713E+01  1.69359183832E+01 -2.30683444215E+01  3.79603065175E+01  5.87386917370E-01  0.0000E+00  9.0
</event>
<event>
 8    1   5.1859766E+00   4.9900000E+02  -1.0000000E+00   9.3510000E-02
       11   -1    0    0    0    0  0.00000000000E+00  0.00000000000E+00  2.49998329280E+02  2.49998329280E+02  0.00000000000E+00  0.0000E+00  9.0
      -11   -1    0    0    0    0  0.00000000000E+00  0.00000000000E+00 -2.49039319610E+02  2.49039319610E+02  0.00000000000E+00  0.0000E+00  9.0
       24    2    1    2    0    0  4.76498223437E+01  7.75100272762E-02 -2.30931691439E+02  2.49197733926E+02  8.06198046754E+01  3.7229E-14  9.0
      -24    2    1    2    0    0 -4.76498223437E+01 -7.75100272762E-02  2.31890701109E+02  2.49839914969E+02  7.98509503611E+01  5.1805E-14  9.0
       -1    1    3    3    0  500  6.28108125429E+01  1.74372937212E+01 -2.01703432951E+02  2.11975310470E+02  0.00000000000E+00  0.0000E+00  9.0
        2    1    3    3  500    0 -1.51609901992E+01 -1.73597836940E+01 -2.92282584885E+01  3.72224234567E+01  0.00000000000E+00  0.0000E+00  9.0
        3    1    4    4  504    0  2.16449799642E+01 -3.84922954415E+00  3.79750845674E+01  4.38797079939E+01  0.00000000000E+00  0.0000E+00  9.0
       -4    1    4    4    0  504 -6.92948023079E+01  3.77171951687E+00  1.93915616542E+02  2.05960206975E+02  5.87386917370E-01  0.0000E+00  9.0
</event>
<event>
 8    1   5.1859766E+00   4.7520000E+02  -1.0000000E+00   9.4060000E-02
       11   -1    0    0    0    0  0.00000000000E+00  0.00000000000E+00  2.47989060950E+02  2.47989060950E+02  0.00000000000E+00  0.0000E+00  9.0
      -11   -1    0    0    0    0  0.00000000000E+00  0.00000000000E+00 -2.27646651110E+02  2.27646651110E+02  0.00000000000E+00  0.0000E+00  9.0
       24    2    1    2    0    0 -6.19137902602E+01  3.10385702649E+01 -2.02850989727E+02  2.28953586721E+02  8.04643434744E+01  7.7987E-15  9.0
      -24    2    1    2    0    0  6.19137902602E+01 -3.10385702649E+01  2.23193399567E+02  2.46682125348E+02  7.89940952694E+01  1.3586E-13  9.0
      -13    1    3    3    0    0 -2.69207345794E+01 -1.47065536193E+01 -1.41570388834E+02  1.44855772535E+02  1.05700000000E-01  0.0000E+00  9.0
       14    1    3    3    0    0 -3.49930556808E+01  4.57451238843E+01 -6.12806008936E+01  8.40978141865E+01  0.00000000000E+00  0.0000E+00  9.0
        3    1    4    4  500    0  4.03097131549E+01  1.41918843605E+01  1.62184856022E+02  1.67720631048E+02  0.00000000000E+00  0.0000E+00  9.0
       -4    1    4    4    0  500  2.16040771052E+01 -4.52304546254E+01  6.10085435457E+01  7.89614943004E+01  5.87386917370E-01  0.0000E+00  9.0
</event>
<event>
 8    1   5.1859766E+00   4.9220000E+02  -1.0000000E+00   9.3660000E-02
       11   -1    0    0    0    0  0.00000000000E+00  0.00000000000E+00  2.42305343810E+02  2.42305343810E+02  0.00000000000E+00  0.0000E+00  9.0
      -11   -1    0    0    0    0  0.00000000000E+00  0.00000000000E+00 -2.49999994080E+02  2.49999994080E+02  0.00000000000E+00  0.0000E+00  9.0
       24    2    1    2    0    0  2.79058038948E+01  8.97945841267E+00 -2.34753558812E+02  2.49528610204E+02  7.93468926376E+01  4.7571E-14  9.0
      -24    2    1    2    0    0 -2.79058038948E+01 -8.97945841267E+00  2.27058908552E+02  2.42776727678E+02  8.07801150323E+01  1.2034E-14  9.0
       -1    1    3    3    0  500  4.92246583127E+00  2.13220981347E+01 -1.14332648590E+01  2.46897161600E+01  0.00000000000E+00  0.0000E+00  9.0
        2    1    3    3  500    0  2.29833380635E+01 -1.23426397220E+01 -2.23320293953E+02  2.24838894044E+02  0.00000000000E+00  0.0000E+00  9.0
        1    1    4    4  504    0 -5.02675631199E+01 -2.17747417412E+01  1.89288921773E+02  1.97056497447E+02  0.00000000000E+00  0.0000E+00  9.0
       -2    1    4    4    0  504  2.23617592251E+01  1.27952833286E+01  3.77699867789E+01  4.57202302310E+01  0.00000000000E+00  0.0000E+00  9.0
</event>
<event>
 8    1   5.1859766E+00   4.9120000E+02  -1.0000000E+00   9.3690000E-02
       11   -1    0    0    0    0  0.00000000000E+00  0.00000000000E+00  2.41305650580E+02  2.41305650580E+02  0.00000000000E+00  0.0000E+00  9.0
      -11   -1    0    0    0    0  0.00000000000E+00  0.00000000000E+00 -2.50000000000E+02  2.50000000000E+02  0.00000000000E+00  0.0000E+00  9.0
       24    2    1    2    0    0  2.55915285236E+01 -5.13403760910E+00 -2.35152095605E+02  2.49758055710E+02  8.00080849068E+01  7.2258E-14  9.0
      -24    2    1    2    0    0 -2.55915285236E+01  5.13403760910E+00  2.26457746185E+02  2.41547594864E+02  7.98801921805E+01  1.9038E-13  9.0
       -1    1    3    3    0  500  5.10824732579E+01  1.31972822807E+01 -1.47010823918E+02  1.56191452016E+02  0.00000000000E+00  0.0000E+00  9.0
        2    1    3    3  500    0 -2.54909447343E+01 -1.83313198898E+01 -8.81412716871E+01  9.35666036947E+01  0.00000000000E+00  0.0000E+00  9.0
        1    1    4    4  504    0 -3.28577195213E+01 -2.91338503282E+01  8.32997590597E+01  9.41661341805E+01  0.00000000000E+00  0.0000E+00  9.0
       -2    1    4    4    0  504  7.26619099767E+00  3.42678879373E+01  1.43157987125E+02  1.47381460683E+02  0.00000000000E+00  0.0000E+00  9.0
</event>
<event>
 8    1   5.1859766E+00   3.8840000E+02  -1.0000000E+00   9.6370000E-02
       11   -1    0    0    0    0  0.00000000000E+00  0.00000000000E+00  1.64022779480E+02  1.64022779480E+02  0.00000000000E+00  0.0000E+00  9.0
      -11   -1    0    0    0    0  0.00000000000E+00  0.00000000000E+00 -2.29956117120E+02  2.29956117120E+02  0.00000000000E+00  0.0000E+00  9.0
       24    2    1    2    0    0 -1.92157351383E+01 -1.95907920375E+01 -2.13389797552E+02  2.26879916516E+02  7.20156039312E+01  5.2391E-14  9.0
      -24    2    1    2    0    0  1.92157351383E+01  1.95907920375E+01  1.47456459902E+02  1.67098980076E+02  7.36587942212E+01  2.5636E-14  9.0
       -1    1    3    3    0  500 -3.56676408970E-01  2.65256682291E+01 -8.94394283858E+01  9.32906728620E+01  0.00000000000E+00  0.0000E+00  9.0
        2    1    3    3  500    0 -1.88590587294E+01 -4.61164602667E+01 -1.23950369166E+02  1.33589243654E+02  0.00000000000E+00  0.0000E+00  9.0
        3    1    4    4  504    0  1.05660100296E+01 -2.61032078637E+01  3.19977027898E+01  4.26247699413E+01  0.00000000000E+00  0.0000E+00  9.0
       -4    1    4    4    0  504  8.64972510878E+00  4.56939999013E+01  1.15458757112E+02  1.24474210135E+02  5.87386917370E-01  0.0000E+00  9.0
</event>
<event>
 8    1   5.1859766E+00   4.9520000E+02  -1.0000000E+00   9.3600000E-02
       11   -1    0    0    0    0  0.00000000000E+00  0.00000000000E+00  2.45238462460E+02  2.45238462460E+02  0.00000000000E+00  0.0000E+00  9.0
      -11   -1    0    0    0    0  0.00000000000E+00  0.00000000000E+00 -2.49944555470E+02  2.49944555470E+02  0.00000000000E+00  0.0000E+00  9.0
       24    2    1    2    0    0 -4.50230522442E+01 -5.59218644774E+01 -2.25200768315E+02  2.49793715784E+02  8.07909910547E+01  3.4926E-15  9.0
      -24    2    1    2    0    0  4.50230522442E+01  5.59218644774E+01  2.20494675305E+02  2.45389302144E+02  8.02725208848E+01  6.4891E-14  9.0
       -3    1    3    3    0  500 -5.18673416391E+01 -2.03160236649E+01 -1.94375819179E+02  2.02200200365E+02  0.00000000000E+00  0.0000E+00  9.0
        4    1    3    3  500    0  6.84428939488E+00 -3.56058408125E+01 -3.08249491355E+01  4.75935154184E+01  5.87386917370E-01  0.0000E+00  9.0
        3    1    4    4  504    0  7.12730614432E+00  6.64087620626E+01  1.58196291686E+02  1.71717759346E+02  0.00000000000E+00  0.0000E+00  9.0
       -4    1    4    4    0  504  3.78957460999E+01 -1.04868975852E+01  6.22983836183E+01  7.36715427983E+01  5.87386917370E-01  0.0000E+00  9.0
</event>
<event>
 8    1   5.1859766E+00   4.6580000E+02  -1.0000000E+00   9.4280000E-02
       11   -1    0    0    0    0  0.00000000000E+00  0.00000000000E+00  2.48425370150E+02  2.48425370150E+02  0.00000000000E+00  0.0000E+00  9.0
      -11   -1    0    0    0    0  0.00000000000E+00  0.00000000000E+00 -2.18364054000E+02  2.18364054000E+02  0.00000000000E+00  0.0000E+00  9.0
       24    2    1    2    0    0 -1.44577050367E+01 -1.85726401066E+01 -1.98421556069E+02  2.22460913206E+02  9.77945591346E+01  2.0208E-13  9.0
      -24    2    1    2    0    0  1.44577050367E+01  1.85726401066E+01  2.28482872209E+02  2.44328510939E+02  8.32948387920E+01  2.2681E-16  9.0
       -3    1    3    3    0  500 -3.86565779902E+01 -2.74444291051E+01 -1.89249770116E+02  1.95097419767E+02  0.00000000000E+00  0.0000E+00  9.0
        4    1    3    3  500    0  2.41988729535E+01  8.87178899851E+00 -9.17178595327E+00  2.73634934396E+01  5.87386917370E-01  0.0000E+00  9.0
        1    1    4    4  504    0 -3.18031173983E+00 -3.16119289771E+01  1.09076153354E+02  1.13609135491E+02  0.00000000000E+00  0.0000E+00  9.0
       -2    1    4    4    0  504  1.76380167765E+01  5.01845690837E+01  1.19406718855E+02  1.30719375448E+02  0.00000000000E+00  0.0000E+00  9.0
</event>
<event>
 8    1   5.1859766E+00   4.7870000E+02  -1.0000000E+00   9.3970000E-02
       11   -1    0    0    0    0  0.00000000000E+00  0.00000000000E+00  2.29197167490E+02  2.29197167490E+02  0.00000000000E+00  0.0000E+00  9.0
      -11   -1    0    0    0    0  0.00000000000E+00  0.00000000000E+00 -2.49996503710E+02  2.49996503710E+02  0.00000000000E+00  0.0000E+00  9.0
       24    2    1    2    0    0  1.11486399006E+02  8.21412184380E+01 -1.89050645388E+02  2.46815674245E+02  7.74689202298E+01  7.9423E-14  9.0
      -24    2    1    2    0    0 -1.11486399006E+02 -8.21412184380E+01  1.68251309158E+02  2.32377996960E+02  8.07132796251E+01  4.1287E-14  9.0
       -3    1    3    3    0  500  1.03876982619E+02  4.27296445895E+01 -1.66284116614E+02  2.00665536360E+02  0.00000000000E+00  0.0000E+00  9.0
        4    1    3    3  500    0  7.60941638765E+00  3.94115738485E+01 -2.27665287742E+01  4.61501378849E+01  5.87386917370E-01  0.0000E+00  9.0
       13    1    4    4    0    0 -4.75316010794E+01 -9.81998237049E+00  1.41916351366E+01  5.05677647841E+01  1.05700000000E-01  0.0000E+00  9.0
      -14    1    4    4    0    0 -6.39547979268E+01 -7.23212360675E+01  1.54059674021E+02  1.81810232176E+02  0.00000000000E+00  0.0000E+00  9.0
</event>
<event>
 8    1   5.1859766E+00   4.9960000E+02  -1.0000000E+00   9.3500000E-02
       11   -1    0    0    0    0  0.00000000000E+00  0.00000000000E+00  2.49634226870E+02  2.49634226870E+02  0.00000000000E+00  0.0000E+00  9.0
      -11   -1    0    0    0    0  0.00000000000E+00  0.00000000000E+00 -2.49971314090E+02  2.49971314090E+02  0.00000000000E+00  0.0000E+00  9.0
       24    2    1    2    0    0 -6.41350861830E+00  1.99406918518E+02 -1.27481241402E+02  2.49928663267E+02  8.00538416787E+01  1.9708E-13  9.0
      -24    2    1    2    0    0  6.41350861830E+00 -1.99406918518E+02  1.27144154182E+02  2.49676877681E+02  7.98038536663E+01  2.4703E-13  9.0
       -1    1    3    3    0  500 -3.18294840128E+01  1.71681194202E+02 -8.84785407648E+01  1.95744733444E+02  0.00000000000E+00  0.0000E+00  9.0
        2    1    3    3  500    0  2.54159753945E+01  2.77257243159E+01 -3.90027006375E+01  5.41839298234E+01  0.00000000000E+00  0.0000E+00  9.0
        1    1    4    4  504    0  3.41768113505E+01 -4.94581606157E+01  5.28465837758E+01  8.00432726864E+01  0.00000000000E+00  0.0000E+00  9.0
       -2    1    4    4    0  504 -2.77633027323E+01 -1.49948757902E+02  7.42975704065E+01  1.69633604994E+02  0.00000000000E+00  0.0000E+00  9.0
</event>
<event>
 8    1   5.1859766E+00   1.8140000E+02  -1.0000000E+00   1.0630000E-01
       11   -1    0    0    0    0  0.00000000000E+00  0.00000000000E+00  3.29257171440E+01  3.29257171440E+01  0.00000000000E+00  0.0000E+00  9.0
      -11   -1    0    0    0    0  0.00000000000E+00  0.00000000000E+00 -2.49906006800E+02  2.49906006800E+02  0.00000000000E+00  0.0000E+00  9.0
       24    2    1    2    0    0 -2.42456737568E+01 -3.24492986661E+00 -1.61424348404E+02  1.82061885050E+02  8.05625686300E+01  2.3107E-14  9.0
      -24    2    1    2    0    0  2.42456737568E+01  3.24492986661E+00 -5.55559412567E+01  1.00769838900E+02  8.04345420656E+01  2.6934E-13  9.0
       -1    1    3    3    0  500 -5.05825334637E+01  5.32860857477E-01 -6.69454308561E+01  8.39080886734E+01  0.00000000000E+00  0.0000E+00  9.0
        2    1    3    3  500    0  2.63368597069E+01 -3.77779072409E+00 -9.44789175482E+01  9.81537963762E+01  0.00000000000E+00  0.0000E+00  9.0
        3    1    4    4  504    0  8.55063433189E+00 -3.36625941609E+01 -3.29036989059E+00  3.48871054566E+01  0.00000000000E+00  0.0000E+00  9.0
       -4    1    4    4    0  504  1.56950394249E+01  3.69075240276E+01 -5.22655713661E+01  6.58827334437E+01  5.87386917370E-01  0.0000E+00  9.0
</event>
<event>
 8    1   5.1859766E+00   4.9830000E+02  -1.0000000E+00   9.3530000E-02
       11   -1    0    0    0    0  0.00000000000E+00  0.00000000000E+00  2.49982869750E+02  2.49982869750E+02  0.00000000000E+00  0.0000E+00  9.0
      -11   -1    0    0    0    0  0.00000000000E+00  0.00000000000E+00 -2.48301407540E+02  2.48301407540E+02  0.00000000000E+00  0.0000E+00  9.0
       24    2    1    2    0    0  3.83086691877E+01 -2.47659999698E+01 -2.30441581207E+02  2.48598672476E+02  8.13453669140E+01  3.5548E-13  9.0
      -24    2    1    2    0    0 -3.83086691877E+01  2.47659999698E+01  2.32123043417E+02  2.49685604814E+02  7.98804423922E+01  5.7660E-14  9.0
       -3    1    3    3    0  500  2.11784627746E+01 -1.34890814674E+01 -2.26273370904E+02  2.27662295923E+02  0.00000000000E+00  0.0000E+00  9.0
        4    1    3    3  500    0  1.71302064131E+01 -1.12769185024E+01 -4.16821030214E+00  2.09363765532E+01  5.87386917370E-01  0.0000E+00  9.0
        1    1    4    4  504    0 -1.91273257279E+01  3.23429209962E+01  2.24617407172E+02  2.27738663236E+02  0.00000000000E+00  0.0000E+00  9.0
       -2    1    4    4    0  504 -1.91813434598E+01 -7.57692102647E+00  7.50563624483E+00  2.19469415775E+01  0.00000000000E+00  0.0000E+00  9.0
</event>
<event>
 8    1   5.1859766E+00   4.5890000E+02  -1.0000000E+00   9.4450000E-02
       11   -1    0    0    0    0  0.00000000000E+00  0.00000000000E+00  2.49999811470E+02  2.49999811470E+02  0.00000000000E+00  0.0000E+00  9.0
      -11   -1    0    0    0    0  0.00000000000E+00  0.00000000000E+00 -2.10603580470E+02  2.10603580470E+02  0.00000000000E+00  0.0000E+00  9.0
       24    2    1    2    0    0  5.08965850841E+00 -1.22510868637E+01 -1.95363622993E+02  2.12348163667E+02  8.21511026737E+01  3.4935E-13  9.0
      -24    2    1    2    0    0 -5.08965850841E+00  1.22510868637E+01  2.34759854003E+02  2.48255228275E+02  7.96396607286E+01  6.6237E-14  9.0
       -3    1    3    3    0  500 -2.97584503700E+01  1.37367318453E+01 -4.40074704857E+01  5.48718564363E+01  0.00000000000E+00  0.0000E+00  9.0
        4    1    3    3  500    0  3.48481088785E+01 -2.59878187090E+01 -1.51356152508E+02  1.57476307230E+02  5.87386917370E-01  0.0000E+00  9.0
        3    1    4    4  504    0  2.76599455100E+01 -7.87473814642E+00  3.73622786754E+01  4.71489549652E+01  0.00000000000E+00  0.0000E+00  9.0
       -4    1    4    4    0  504 -3.27496040184E+01  2.01258250102E+01  1.97397575328E+02  2.01106273309E+02  5.87386917370E-01  0.0000E+00  9.0
</event>
<event>
 8    1   5.1859766E+00   4.9990000E+02  -1.0000000E+00   9.3490000E-02
       11   -1    0    0    0    0  0.00000000000E+00  0.00000000000E+00  2.50000000000E+02  2.50000000000E+02  0.00000000000E+00  0.0000E+00  9.0
      -11   -1    0    0    0    0  0.00000000000E+00  0.00000000000E+00 -2.49927174280E+02  2.49927174280E+02  0.00000000000E+00  0.0000E+00  9.0
       24    2    1    2    0    0  4.40418768310E+01  7.21936760872E+01 -2.20992061834E+02  2.50512982567E+02  8.22657234766E+01  5.0483E-14  9.0
      -24    2    1    2    0    0 -4.40418768310E+01 -7.21936760872E+01  2.21064887544E+02  2.49414191712E+02  7.86520231178E+01  4.4204E-14  9.0
       -1    1    3    3    0  500  1.20742368253E+01  5.22648225151E+01 -4.34865231928E+01  6.90541567673E+01  0.00000000000E+00  0.0000E+00  9.0
        2    1    3    3  500    0  3.19676400057E+01  1.99288535721E+01 -1.77505538642E+02  1.81458825800E+02  0.00000000000E+00  0.0000E+00  9.0
        1    1    4    4  504    0 -4.50772790097E+01 -8.82016423889E+01  1.96872492205E+02  2.20386635235E+02  0.00000000000E+00  0.0000E+00  9.0
       -2    1    4    4    0  504  1.03540217878E+00  1.60079663016E+01  2.41923953389E+01  2.90275564769E+01  0.00000000000E+00  0.0000E+00  9.0
</event>
<event>
 8    1   5.1859766E+00   5.0000000E+02  -1.0000000E+00   9.3490000E-02
       11   -1    0    0    0    0  0.00000000000E+00  0.00000000000E+00  2.49999999620E+02  2.49999999620E+02  0.00000000000E+00  0.0000E+00  9.0
      -11   -1    0    0    0    0  0.00000000000E+00  0.00000000000E+00 -2.49997776370E+02  2.49997776370E+02  0.00000000000E+00  0.0000E+00  9.0
       24    2    1    2    0    0  6.53865171462E+01 -3.28433597753E+01 -2.24316491369E+02  2.49348087569E+02  8.06380652571E+01  4.2806E-14  9.0
      -24    2    1    2    0    0 -6.53865171462E+01  3.28433597753E+01  2.24318714619E+02  2.50649688420E+02  8.45712579491E+01  1.8388E-13  9.0
       -1    1    3    3    0  500  8.39489095928E+01 -2.83087659285E+01 -1.97080689196E+02  2.16077772351E+02  0.00000000000E+00  0.0000E+00  9.0
        2    1    3    3  500    0 -1.85623924467E+01 -4.53459384677E+00 -2.72358021730E+01  3.32703152180E+01  0.00000000000E+00  0.0000E+00  9.0
        1    1    4    4  504    0 -5.35857530172E+01  5.33107179683E+01  2.09603087010E+02  2.22815887362E+02  0.00000000000E+00  0.0000E+00  9.0
       -2    1    4    4    0  504 -1.18007641290E+01 -2.04673581931E+01  1.47156276085E+01  2.78338010581E+01  0.00000000000E+00  0.0000E+00  9.0
</event>
<event>
 8    1   5.1859766E+00   4.9460000E+02  -1.0000000E+00   9.3610000E-02
       11   -1    0    0    0    0  0.00000000000E+00  0.00000000000E+00  2.44665707030E+02  2.44665707030E+02  0.00000000000E+00  0.0000E+00  9.0
      -11   -1    0    0    0    0  0.00000000000E+00  0.00000000000E+00 -2.49999992830E+02  2.49999992830E+02  0.00000000000E+00  0.0000E+00  9.0
       24    2    1    2    0    0  5.30392764890E+01 -3.24358404724E+01 -2.28569349633E+02  2.48382859993E+02  7.47318469533E+01  8.1887E-14  9.0
      -24    2    1    2    0    0 -5.30392764890E+01  3.24358404724E+01  2.23235063833E+02  2.46282839863E+02  8.34032067038E+01  2.7283E-13  9.0
       -3    1    3    3    0  500  4.47196364385E+01 -5.62057582825E+01 -1.62097700807E+02  1.77298047802E+02  0.00000000000E+00  0.0000E+00  9.0
        4    1    3    3  500    0  8.31964005051E+00  2.37699178102E+01 -6.64716488260E+01  7.10848121916E+01  5.87386917370E-01  0.0000E+00  9.0
        3    1    4    4  504    0 -4.12146059234E+01  5.99345783612E+01  1.74959235885E+02  1.89476995032E+02  0.00000000000E+00  0.0000E+00  9.0
       -4    1    4    4    0  504 -1.18246705656E+01 -2.74987378888E+01  4.82758279479E+01  5.68058448306E+01  5.87386917370E-01  0.0000E+00  9.0
</event>
<event>
 8    1   5.1859766E+00   4.9110000E+02  -1.0000000E+00   9.3690000E-02
       11   -1    0    0    0    0  0.00000000000E+00  0.00000000000E+00  2.49586312660E+02  2.49586312660E+02  0.00000000000E+00  0.0000E+00  9.0
      -11   -1    0    0    0    0  0.00000000000E+00  0.00000000000E+00 -2.41580723300E+02  2.41580723300E+02  0.00000000000E+00  0.0000E+00  9.0
       24    2    1    2    0    0 -1.59780459856E+01 -1.47606722299E+02  1.82572932374E+02  2.48946589080E+02  8.12310664561E+01  1.2993E-13  9.0
      -24    2    1    2    0    0  1.59780459856E+01  1.47606722299E+02 -1.74567343014E+02  2.42220446870E+02  7.84470854359E+01  7.9416E-14  9.0
       -1    1    3    3    0  500 -3.67918285140E+01 -2.47473972234E+01  5.44506359777E+01  7.02206812350E+01  0.00000000000E+00  0.0000E+00  9.0
        2    1    3    3  500    0  2.08137825284E+01 -1.22859325075E+02  1.28122296397E+02  1.78725907845E+02  0.00000000000E+00  0.0000E+00  9.0
        1    1    4    4  504    0  6.48679448642E+00  1.16575334930E+02 -7.81701495327E+01  1.40507862751E+02  0.00000000000E+00  0.0000E+00  9.0
       -2    1    4    4    0  504  9.49125149918E+00  3.10313873685E+01 -9.63971934816E+01  1.01712584119E+02  0.00000000000E+00  0.0000E+00  9.0
</event>
<event>
 8    1   5.1859766E+00   4.9940000E+02  -1.0000000E+00   9.3500000E-02
       11   -1    0    0    0    0  0.00000000000E+00  0.00000000000E+00  2.49986899870E+02  2.49986899870E+02  0.00000000000E+00  0.0000E+00  9.0
      -11   -1    0    0    0    0  0.00000000000E+00  0.00000000000E+00 -2.49368699240E+02  2.49368699240E+02  0.00000000000E+00  0.0000E+00  9.0
       24    2    1    2    0    0  1.41022695562E+01 -1.46027966026E+01 -2.35252601452E+02  2.49576640008E+02  8.08244831253E+01  5.4997E-14  9.0
      -24    2    1    2    0    0 -1.41022695562E+01  1.46027966026E+01  2.35870802092E+02  2.49778959100E+02  7.96390447846E+01  4.5323E-14  9.0
       -1    1    3    3    0  500 -2.47636161722E+01 -7.16995332721E+00 -1.78728200560E+02  1.80578001407E+02  0.00000000000E+00  0.0000E+00  9.0
        2    1    3    3  500    0  3.88658857285E+01 -7.43284327542E+00 -5.65244008917E+01  6.89986386009E+01  0.00000000000E+00  0.0000E+00  9.0
        3    1    4    4  504    0 -4.26666992874E+01  2.73931118516E+01  1.37695448552E+02  1.46733998640E+02  0.00000000000E+00  0.0000E+00  9.0
       -4    1    4    4    0  504  2.85644297312E+01 -1.27903152490E+01  9.81753535400E+01  1.03044960460E+02  5.87386917370E-01  0.0000E+00  9.0
</event>
<event>
 8    1   5.1859766E+00   4.8730000E+02  -1.0000000E+00   9.3780000E-02
       11   -1    0    0    0    0  0.00000000000E+00  0.00000000000E+00  2.39194006680E+02  2.39194006680E+02  0.00000000000E+00  0.0000E+00  9.0
      -11   -1    0    0    0    0  0.00000000000E+00  0.00000000000E+00 -2.48173850740E+02  2.48173850740E+02  0.00000000000E+00  0.0000E+00  9.0
       24    2    1    2    0    0 -3.75030306967E+01 -6.94557552729E+00 -2.30548824603E+02  2.47010813764E+02  8.00428838812E+01  7.0335E-14  9.0
      -24    2    1    2    0    0  3.75030306967E+01  6.94557552729E+00  2.21568980543E+02  2.40357043666E+02  8.49939819657E+01  2.2823E-14  9.0
       -1    1    3    3    0  500  1.30997389258E+01  1.83970382525E+01 -2.44568096793E+01  3.32894835659E+01  0.00000000000E+00  0.0000E+00  9.0
        2    1    3    3  500    0 -5.06027696226E+01 -2.53426137798E+01 -2.06092014923E+02  2.13721330198E+02  0.00000000000E+00  0.0000E+00  9.0
        3    1    4    4  504    0 -1.49767273601E+01 -2.59877872853E+01  9.13581618289E+01  9.61560252046E+01  0.00000000000E+00  0.0000E+00  9.0
       -4    1    4    4    0  504  5.24797580568E+01  3.29333628126E+01  1.30210818714E+02  1.44201018462E+02  5.87386917370E-01  0.0000E+00  9.0
</event>
<event>
 8    1   5.1859766E+00   5.0000000E+02  -1.0000000E+00   9.3490000E-02
       11   -1    0    0    0    0  0.00000000000E+00  0.00000000000E+00  2.49956662250E+02  2.49956662250E+02  0.00000000000E+00  0.0000E+00  9.0
      -11   -1    0    0    0    0  0.00000000000E+00  0.00000000000E+00 -2.49994790760E+02  2.49994790760E+02  0.00000000000E+00  0.0000E+00  9.0
       24    2    1    2    0    0 -1.46624737036E+02  2.42571252423E+01 -1.84972118519E+02  2.50404829953E+02  8.00042036312E+01  4.2533E-14  9.0
      -24    2    1    2    0    0  1.46624737036E+02 -2.42571252423E+01  1.84933990009E+02  2.49546623059E+02  7.73674012974E+01  3.7932E-14  9.0
       -3    1    3    3    0  500 -4.62512447295E+00  1.54111330650E+01  1.15044285275E+00  1.61312838142E+01  0.00000000000E+00  0.0000E+00  9.0
        4    1    3    3  500    0 -1.41999612563E+02  8.84599217732E+00 -1.86122561371E+02  2.34273546139E+02  5.87386917370E-01  0.0000E+00  9.0
        3    1    4    4  504    0  2.86733649813E+01 -9.56304690329E+00  9.72526320549E+01  1.01841485491E+02  0.00000000000E+00  0.0000E+00  9.0
       -4    1    4    4    0  504  1.17951372055E+02 -1.46940783390E+01  8.76813579537E+01  1.47705137567E+02  5.87386917370E-01  0.0000E+00  9.0
</event>
<event>
 8    1   5.1859766E+00   4.9940000E+02  -1.0000000E+00   9.3500000E-02
       11   -1    0    0    0    0  0.00000000000E+00  0.00000000000E+00  2.49420138640E+02  2.49420138640E+02  0.00000000000E+00  0.0000E+00  9.0
      -11   -1    0    0    0    0  0.00000000000E+00  0.00000000000E+00 -2.50000000000E+02  2.50000000000E+02  0.00000000000E+00  0.0000E+00  9.0
       24    2    1    2    0    0  1.24555682429E+01  2.09340348329E+01 -2.35494548354E+02  2.50042968512E+02  8.04389756485E+01  1.0242E-13  9.0
      -24    2    1    2    0    0 -1.24555682429E+01 -2.09340348329E+01  2.34914686994E+02  2.49377170123E+02  8.00667710020E+01  5.5218E-13  9.0
       -1    1    3    3    0  500 -3.16585747729E+01  1.41748201596E+01 -1.45664010228E+02  1.49737085449E+02  0.00000000000E+00  0.0000E+00  9.0
        2    1    3    3  500    0  4.41141430158E+01  6.75921467334E+00 -8.98305381260E+01  1.00305883063E+02  0.00000000000E+00  0.0000E+00  9.0
        1    1    4    4  504    0  3.11933049119E+01  6.06038005919E+00  1.04614757669E+02  1.09334340442E+02  0.00000000000E+00  0.0000E+00  9.0
       -2    1    4    4    0  504 -4.36488731548E+01 -2.69944148921E+01  1.30299929325E+02  1.40042829681E+02  0.00000000000E+00  0.0000E+00  9.0
</event>
<event>
 8    1   5.1859766E+00   4.9410000E+02  -1.0000000E+00   9.3620000E-02
       11   -1    0    0    0    0  0.00000000000E+00  0.00000000000E+00  2.47515047900E+02  2.47515047900E+02  0.00000000000E+00  0.0000E+00  9.0
      -11   -1    0    0    0    0  0.00000000000E+00  0.00000000000E+00 -2.46541315590E+02  2.46541315590E+02  0.00000000000E+00  0.0000E+00  9.0
       24    2    1    2    0    0 -2.24425461337E+02  1.59355081668E+01  6.38417348591E+01  2.47272724362E+02  8.02951118485E+01  6.0279E-14  9.0
      -24    2    1    2    0    0  2.24425461337E+02 -1.59355081668E+01 -6.28680025441E+01  2.46783639128E+02  7.95553309368E+01  6.7001E-15  9.0
       -3    1    3    3    0  500 -2.17769920290E+02  6.20182765978E+00  4.11742751573E+01  2.21714956158E+02  0.00000000000E+00  0.0000E+00  9.0
        4    1    3    3  500    0 -6.65554104680E+00  9.73368050699E+00  2.26674597018E+01  2.55577682038E+01  5.87386917370E-01  0.0000E+00  9.0
        3    1    4    4  504    0  1.85356337964E+02 -3.58737584133E+01 -2.82395976032E+01  1.90896237361E+02  0.00000000000E+00  0.0000E+00  9.0
       -4    1    4    4    0  504  3.90691233732E+01  1.99382502465E+01 -3.46284049409E+01  5.58874017663E+01  5.87386917370E-01  0.0000E+00  9.0
</event>
<event>
 8    1   5.1859766E+00   4.9990000E+02  -1.0000000E+00   9.3490000E-02
       11   -1    0    0    0    0  0.00000000000E+00  0.00000000000E+00  2.49942063630E+02  2.49942063630E+02  0.00000000000E+00  0.0000E+00  9.0
      -11   -1    0    0    0    0  0.00000000000E+00  0.00000000000E+00 -2.49999995990E+02  2.49999995990E+02  0.00000000000E+00  0.0000E+00  9.0
       24    2    1    2    0    0  1.20961156677E+02  1.53748940169E+02  1.33331965017E+02  2.49835554927E+02  7.98126154363E+01  1.5176E-13  9.0
      -24    2    1    2    0    0 -1.20961156677E+02 -1.53748940169E+02 -1.33389897377E+02  2.50106504698E+02  8.05609144839E+01  2.6245E-14  9.0
       -3    1    3    3    0  500  5.57003719720E+01  1.47562028917E+01  3.28441298773E+01  6.63250618469E+01  0.00000000000E+00  0.0000E+00  9.0
        4    1    3    3  500    0  6.52607847050E+01  1.38992737277E+02  1.00487835139E+02  1.83510493080E+02  5.87386917370E-01  0.0000E+00  9.0
       13    1    4    4    0    0 -8.48906754630E+01 -5.03644301520E+01 -8.55289575647E+01  1.30607106850E+02  1.05700000000E-01  0.0000E+00  9.0
      -14    1    4    4    0    0 -3.60704812141E+01 -1.03384510017E+02 -4.78609398119E+01  1.19499397848E+02  0.00000000000E+00  0.0000E+00  9.0
</event>
<event>
 8    1   5.1859766E+00   4.1060000E+02  -1.0000000E+00   9.5720000E-02
       11   -1    0    0    0    0  0.00000000000E+00  0.00000000000E+00  1.68562653650E+02  1.68562653650E+02  0.00000000000E+00  0.0000E+00  9.0
      -11   -1    0    0    0    0  0.00000000000E+00  0.00000000000E+00 -2.50000000000E+02  2.50000000000E+02  0.00000000000E+00  0.0000E+00  9.0
       24    2    1    2    0    0  1.29691605973E+02 -2.72819743413E+01 -1.78222905528E+02  2.35920011502E+02  7.95652498799E+01  7.8028E-14  9.0
      -24    2    1    2    0    0 -1.29691605973E+02  2.72819743413E+01  9.67855591856E+01  1.82642642152E+02  8.01665234484E+01  8.3536E-16  9.0
       -3    1    3    3    0  500  1.20975568730E+02 -4.83906946309E+01 -1.62024027380E+02  2.07914725320E+02  0.00000000000E+00  0.0000E+00  9.0
        4    1    3    3  500    0  8.71603724245E+00  2.11087202896E+01 -1.61988781477E+01  2.80052861816E+01  5.87386917370E-01  0.0000E+00  9.0
        1    1    4    4  504    0 -1.21784657641E+02  3.85863873955E+01  5.58153016671E+01  1.39412194693E+02  0.00000000000E+00  0.0000E+00  9.0
       -2    1    4    4    0  504 -7.90694833215E+00 -1.13044130542E+01  4.09702575185E+01  4.32304474596E+01  0.00000000000E+00  0.0000E+00  9.0
</event>
<event>
 8    1   5.1859766E+00   4.6420000E+02  -1.0000000E+00   9.4320000E-02
       11   -1    0    0    0    0  0.00000000000E+00  0.00000000000E+00  2.15510300680E+02  2.15510300680E+02  0.00000000000E+00  0.0000E+00  9.0
      -11   -1    0    0    0    0  0.00000000000E+00  0.00000000000E+00 -2.50000000000E+02  2.50000000000E+02  0.00000000000E+00  0.0000E+00  9.0
       24    2    1    2    0    0  1.03261863648E+02 -7.56950184401E+01 -1.92797270039E+02  2.45341395701E+02  8.14178408541E+01  6.3843E-14  9.0
      -24    2    1    2    0    0 -1.03261863648E+02  7.56950184401E+01  1.58307570729E+02  2.20168904987E+02  8.37872989909E+01  2.1077E-13  9.0
       -1    1    3    3    0  500  9.68113826897E+01 -2.78413116131E+01 -1.50773274158E+02  1.81328879804E+02  0.00000000000E+00  0.0000E+00  9.0
        2    1    3    3  500    0  6.45048095815E+00 -4.78537068269E+01 -4.20239958815E+01  6.40125158974E+01  0.00000000000E+00  0.0000E+00  9.0
        1    1    4    4  504    0 -8.48789698972E+01  2.26132325325E+01  5.81804276089E+01  1.05360144140E+02  0.00000000000E+00  0.0000E+00  9.0
       -2    1    4    4    0  504 -1.83828937506E+01  5.30817859076E+01  1.00127143120E+02  1.14808760847E+02  0.00000000000E+00  0.0000E+00  9.0
</event>
<event>
 8    1   5.1859766E+00   4.9220000E+02  -1.0000000E+00   9.3670000E-02
       11   -1    0    0    0    0  0.00000000000E+00  0.00000000000E+00  2.42282014980E+02  2.42282014980E+02  0.00000000000E+00  0.0000E+00  9.0
      -11   -1    0    0    0    0  0.00000000000E+00  0.00000000000E+00 -2.49958936040E+02  2.49958936040E+02  0.00000000000E+00  0.0000E+00  9.0
       24    2    1    2    0    0  1.16473918876E+01  1.91167951353E+01 -2.35215709953E+02  2.49641408434E+02  8.05809468958E+01  8.0872E-14  9.0
      -24    2    1    2    0    0 -1.16473918876E+01 -1.91167951353E+01  2.27538788893E+02  2.42599542580E+02  8.11142651792E+01  6.1299E-14  9.0
      -13    1    3    3    0    0  3.66486231963E+00 -3.01585864014E+00  5.79141583929E+00  7.48854385530E+00  1.05700000000E-01  0.0000E+00  9.0
       14    1    3    3    0    0  7.98252956796E+00  2.21326537754E+01 -2.41007125792E+02  2.42152864579E+02  0.00000000000E+00  0.0000E+00  9.0
        1    1    4    4  500    0 -7.26123170309E-01  3.19305507864E+01  8.50681317621E+01  9.08662443918E+01  0.00000000000E+00  0.0000E+00  9.0
       -2    1    4    4    0  500 -1.09212687173E+01 -5.10473459216E+01  1.42470657130E+02  1.51733298189E+02  0.00000000000E+00  0.0000E+00  9.0
</event>
<event>
 8    1   5.1859766E+00   2.1600000E+02  -1.0000000E+00   1.0380000E-01
       11   -1    0    0    0    0  0.00000000000E+00  0.00000000000E+00  5.08929378920E+01  5.08929378920E+01  0.00000000000E+00  0.0000E+00  9.0
      -11   -1    0    0    0    0  0.00000000000E+00  0.00000000000E+00 -2.29140846360E+02  2.29140846360E+02  0.00000000000E+00  0.0000E+00  9.0
       24    2    1    2    0    0 -2.72368416716E+01  2.19700399236E+01 -1.68531133099E+02  1.90978879230E+02  8.27385115277E+01  8.1287E-14  9.0
      -24    2    1    2    0    0  2.72368416716E+01 -2.19700399236E+01 -9.71677536675E+00  8.90549050206E+01  8.13131735097E+01  4.6438E-14  9.0
       -3    1    3    3    0  500  2.96692634079E+01  2.94690953442E+00 -5.75719315137E+01  6.48342252610E+01  0.00000000000E+00  0.0000E+00  9.0
        4    1    3    3  500    0 -5.69061050795E+01  1.90231303892E+01 -1.10959201586E+02  1.26144653969E+02  5.87386917370E-01  0.0000E+00  9.0
        3    1    4    4  504    0  3.37999686996E+01  1.95428480302E+01  1.31584536501E+01  4.12007972700E+01  0.00000000000E+00  0.0000E+00  9.0
       -4    1    4    4    0  504 -6.56312702796E+00 -4.15128879538E+01 -2.28752290168E+01  4.78541077506E+01  5.87386917370E-01  0.0000E+00  9.0
</event>
<event>
 8    1   5.1859766E+00   4.6780000E+02  -1.0000000E+00   9.4230000E-02
       11   -1    0    0    0    0  0.00000000000E+00  0.00000000000E+00  2.49180413670E+02  2.49180413670E+02  0.00000000000E+00  0.0000E+00  9.0
      -11   -1    0    0    0    0  0.00000000000E+00  0.00000000000E+00 -2.19596817470E+02  2.19596817470E+02  0.00000000000E+00  0.0000E+00  9.0
       24    2    1    2    0    0  6.94254202049E+01  1.33418024668E+02 -1.45804137656E+02  2.24245357782E+02  8.00429612913E+01  8.3739E-16  9.0
      -24    2    1    2    0    0 -6.94254202049E+01 -1.33418024668E+02  1.75387733856E+02  2.44531873369E+02  8.00919573315E+01  1.3770E-13  9.0
       -3    1    3    3    0  500  5.98228225575E+01  3.11109741706E+01 -6.29275608434E+01  9.22309098204E+01  0.00000000000E+00  0.0000E+00  9.0
        4    1    3    3  500    0  9.60259764733E+00  1.02307050498E+02 -8.28765768125E+01  1.32014447962E+02  5.87386917370E-01  0.0000E+00  9.0
        3    1    4    4  504    0 -1.58754730143E+01 -1.09402336199E+02  1.27748675157E+02  1.68939710588E+02  0.00000000000E+00  0.0000E+00  9.0
       -4    1    4    4    0  504 -5.35499471906E+01 -2.40156884693E+01  4.76390586989E+01  7.55921627808E+01  5.87386917370E-01  0.0000E+00  9.0
</event>
<event>
 8    1   5.1859766E+00   3.5910000E+02  -1.0000000E+00   9.7300000E-02
       11   -1    0    0    0    0  0.00000000000E+00  0.00000000000E+00  2.49999538640E+02  2.49999538640E+02  0.00000000000E+00  0.0000E+00  9.0
      -11   -1    0    0    0    0  0.00000000000E+00  0.00000000000E+00 -1.28961825120E+02  1.28961825120E+02  0.00000000000E+00  0.0000E+00  9.0
       24    2    1    2    0    0  4.90528874381E+01 -7.30193685942E+01 -8.07130966741E+01  1.44343682891E+02  8.11324895455E+01  4.9464E-15  9.0
      -24    2    1    2    0    0 -4.90528874381E+01  7.30193685942E+01  2.01750810199E+02  2.34617680880E+02  8.12653235378E+01  7.6245E-15  9.0
       -3    1    3    3    0  500  3.86013187374E+01  4.97780340775E+00 -3.97204230460E+01  5.56107214662E+01  0.00000000000E+00  0.0000E+00  9.0
        4    1    3    3  500    0  1.04515687006E+01 -7.79971720020E+01 -4.09926736281E+01  8.87329614246E+01  5.87386917370E-01  0.0000E+00  9.0
       13    1    4    4    0    0 -5.46409473190E+01  1.30723443490E+01  1.25192613449E+02  1.37221430343E+02  1.05700000000E-01  0.0000E+00  9.0
      -14    1    4    4    0    0  5.58805988092E+00  5.99470242452E+01  7.65581967506E+01  9.73962505376E+01  0.00000000000E+00  0.0000E+00  9.0
</event>
<event>
 8    1   5.1859766E+00   4.9640000E+02  -1.0000000E+00   9.3570000E-02
       11   -1    0    0    0    0  0.00000000000E+00  0.00000000000E+00  2.49999940000E+02  2.49999940000E+02  0.00000000000E+00  0.0000E+00  9.0
      -11   -1    0    0    0    0  0.00000000000E+00  0.00000000000E+00 -2.46375904910E+02  2.46375904910E+02  0.00000000000E+00  0.0000E+00  9.0
       24    2    1    2    0    0 -2.09712659743E+01  6.79844877200E+01 -2.21137613147E+02  2.47127211991E+02  8.43109150169E+01  8.6298E-14  9.0
      -24    2    1    2    0    0  2.09712659743E+01 -6.79844877200E+01  2.24761648237E+02  2.49248632909E+02  8.09036335509E+01  6.2998E-14  9.0
       -1    1    3    3    0  500 -3.30985726714E+00  3.74435773179E+01 -1.93479990844E+01  4.22767277123E+01  0.00000000000E+00  0.0000E+00  9.0
        2    1    3    3  500    0 -1.76614087072E+01  3.05409104021E+01 -2.01789614062E+02  2.04850484278E+02  0.00000000000E+00  0.0000E+00  9.0
        3    1    4    4  504    0  3.06783047677E+01 -6.45387480467E+01  9.39869443004E+01  1.18067582688E+02  0.00000000000E+00  0.0000E+00  9.0
       -4    1    4    4    0  504 -9.70703879339E+00 -3.44573967324E+00  1.30774703936E+02  1.31181050221E+02  5.87386917370E-01  0.0000E+00  9.0
</event>
<event>
 8    1   5.1859766E+00   4.8720000E+02  -1.0000000E+00   9.3780000E-02
       11   -1    0    0    0    0  0.00000000000E+00  0.00000000000E+00  2.43237255330E+02  2.43237255330E+02  0.00000000000E+00  0.0000E+00  9.0
      -11   -1    0    0    0    0  0.00000000000E+00  0.00000000000E+00 -2.43965906450E+02  2.43965906450E+02  0.00000000000E+00  0.0000E+00  9.0
       24    2    1    2    0    0 -1.77054976601E+01  3.73163269825E+01 -2.27646129029E+02  2.44608270371E+02  7.94005854213E+01  1.1714E-13  9.0
      -24    2    1    2    0    0  1.77054976601E+01 -3.73163269825E+01  2.26917477909E+02  2.42594891414E+02  7.51980495275E+01  1.4910E-13  9.0
       -3    1    3    3    0  500 -2.29491920919E+01  2.32307911049E+01 -2.27226600116E+02  2.29561022112E+02  0.00000000000E+00  0.0000E+00  9.0
        4    1    3    3  500    0  5.24369443186E+00  1.40855358776E+01 -4.19528912772E-01  1.50472482585E+01  5.87386917370E-01  0.0000E+00  9.0
        1    1    4    4  504    0 -2.85855617999E+01 -1.13184173844E+01  5.97032474029E+01  6.71544389147E+01  0.00000000000E+00  0.0000E+00  9.0
       -2    1    4    4    0  504  4.62910594600E+01 -2.59979095981E+01  1.67214230506E+02  1.75440452499E+02  0.00000000000E+00  0.0000E+00  9.0
</event>
<event>
 8    1   5.1859766E+00   4.7620000E+02  -1.0000000E+00   9.4030000E-02
       11   -1    0    0    0    0  0.00000000000E+00  0.00000000000E+00  2.47708484220E+02  2.47708484220E+02  0.00000000000E+00  0.0000E+00  9.0
      -11   -1    0    0    0    0  0.00000000000E+00  0.00000000000E+00 -2.28875907950E+02  2.28875907950E+02  0.00000000000E+00  0.0000E+00  9.0
       24    2    1    2    0    0 -1.89942557950E+02 -2.30197127808E+01 -1.06703491137E+02  2.32888999392E+02  7.90162547810E+01  2.9175E-14  9.0
      -24    2    1    2    0    0  1.89942557950E+02  2.30197127808E+01  1.25536067407E+02  2.43695392775E+02  8.37857848473E+01  1.2120E-13  9.0
       -1    1    3    3    0  500 -1.62690248845E+02  9.74280350017E+00 -9.51982867599E+01  1.88747855859E+02  0.00000000000E+00  0.0000E+00  9.0
        2    1    3    3  500    0 -2.72523091052E+01 -3.27625162810E+01 -1.15052043774E+01  4.41411435329E+01  0.00000000000E+00  0.0000E+00  9.0
        3    1    4    4  504    0  1.21175657777E+01  6.40279499174E+00 -1.20462650016E+01  1.82467444924E+01  0.00000000000E+00  0.0000E+00  9.0
       -4    1    4    4    0  504  1.77824992172E+02  1.66169177890E+01  1.37582332409E+02  2.25448648282E+02  5.87386917370E-01  0.0000E+00  9.0
</event>
<event>
 8    1   5.1859766E+00   4.7230000E+02  -1.0000000E+00   9.4120000E-02
       11   -1    0    0    0    0  0.00000000000E+00  0.00000000000E+00  2.50000000000E+02  2.50000000000E+02  0.00000000000E+00  0.0000E+00  9.0
      -11   -1    0    0    0    0  0.00000000000E+00  0.00000000000E+00 -2.23086490600E+02  2.23086490600E+02  0.00000000000E+00  0.0000E+00  9.0
       24    2    1    2    0    0 -1.69141539801E+01  7.58329635329E+00 -2.08580248898E+02  2.24074784501E+02  7.97508233859E+01  1.9820E-14  9.0
      -24    2    1    2    0    0  1.69141539801E+01 -7.58329635329E+00  2.35493758298E+02  2.49011706099E+02  7.87776909335E+01  1.0488E-13  9.0
       -3    1    3    3    0  500 -8.07144058919E+00  3.02649562355E+01 -2.84768418591E+01  4.23325672667E+01  0.00000000000E+00  0.0000E+00  9.0
        4    1    3    3  500    0 -8.84271339089E+00 -2.26816598822E+01 -1.80103407039E+02  1.81742217235E+02  5.87386917370E-01  0.0000E+00  9.0
        1    1    4    4  504    0 -1.62843932953E+01 -2.49061681069E+01  1.77513795565E+02  1.79990683900E+02  0.00000000000E+00  0.0000E+00  9.0
       -2    1    4    4    0  504  3.31985472753E+01  1.73228717536E+01  5.79799627326E+01  6.90210221995E+01  0.00000000000E+00  0.0000E+00  9.0
</event>
<event>
 8    1   5.1859766E+00   4.9980000E+02  -1.0000000E+00   9.3490000E-02
       11   -1    0    0    0    0  0.00000000000E+00  0.00000000000E+00  2.49994949490E+02  2.49994949490E+02  0.00000000000E+00  0.0000E+00  9.0
      -11   -1    0    0    0    0  0.00000000000E+00  0.00000000000E+00 -2.49850710140E+02  2.49850710140E+02  0.00000000000E+00  0.0000E+00  9.0
       24    2    1    2    0    0 -2.36977775095E+01 -9.24640350264E+01 -2.15862751624E+02  2.50351771386E+02  8.34751427974E+01  2.3942E-13  9.0
      -24    2    1    2    0    0  2.36977775095E+01  9.24640350264E+01  2.16006990984E+02  2.49493888239E+02  8.04797967348E+01  8.1813E-14  9.0
       -1    1    3    3    0  500  3.59153331841E+00 -3.00374389956E+01 -7.54813492405E+00  3.11788581225E+01  0.00000000000E+00  0.0000E+00  9.0
        2    1    3    3  500    0 -2.72893108279E+01 -6.24265960308E+01 -2.08314616700E+02  2.19172913263E+02  0.00000000000E+00  0.0000E+00  9.0
        3    1    4    4  504    0  2.99584956964E+00 -1.41528107120E+01  4.14970835282E+01  4.39463890103E+01  0.00000000000E+00  0.0000E+00  9.0
       -4    1    4    4    0  504  2.07019279399E+01  1.06616845738E+02  1.74509907456E+02  2.05547499229E+02  5.87386917370E-01  0.0000E+00  9.0
</event>
<event>
 8    1   5.1859766E+00   4.9920000E+02  -1.0000000E+00   9.3510000E-02
       11   -1    0    0    0    0  0.00000000000E+00  0.00000000000E+00  2.49255752030E+02  2.49255752030E+02  0.00000000000E+00  0.0000E+00  9.0
      -11   -1    0    0    0    0  0.00000000000E+00  0.00000000000E+00 -2.49941497330E+02  2.49941497330E+02  0.00000000000E+00  0.0000E+00  9.0
       24    2    1    2    0    0  2.20452074341E+02  4.62707012667E+01 -7.28819698437E+01  2.48773892462E+02  7.63974683209E+01  8.6185E-14  9.0
      -24    2    1    2    0    0 -2.20452074341E+02 -4.62707012667E+01  7.21962245337E+01  2.50423356898E+02  8.22159836433E+01  2.1515E-14  9.0
       -3    1    3    3    0  500  1.91970413912E+02  1.57413052743E+01 -7.56218188569E+01  2.06927736170E+02  0.00000000000E+00  0.0000E+00  9.0
        4    1    3    3  500    0  2.84816604286E+01  3.05293959924E+01  2.73984901326E+00  4.18461562923E+01  5.87386917370E-01  0.0000E+00  9.0
        3    1    4    4  504    0 -9.47448616692E+01  2.11548716736E+01  3.20652024896E+01  1.02236464233E+02  0.00000000000E+00  0.0000E+00  9.0
       -4    1    4    4    0  504 -1.25707212671E+02 -6.74255729404E+01  4.01310220440E+01  1.48186892665E+02  5.87386917370E-01  0.0000E+00  9.0
</event>
<event>
 8    1   5.1859766E+00   4.9970000E+02  -1.0000000E+00   9.3500000E-02
       11   -1    0    0    0    0  0.00000000000E+00  0.00000000000E+00  2.49959390110E+02  2.49959390110E+02  0.00000000000E+00  0.0000E+00  9.0
      -11   -1    0    0    0    0  0.00000000000E+00  0.00000000000E+00 -2.49774715680E+02  2.49774715680E+02  0.00000000000E+00  0.0000E+00  9.0
       24    2    1    2    0    0 -1.55851399778E+01  2.79126461676E+00 -2.35744348677E+02  2.49529661634E+02  8.02431701494E+01  3.3186E-14  9.0
      -24    2    1    2    0    0  1.55851399778E+01 -2.79126461676E+00  2.35929023117E+02  2.50204444149E+02  8.17867481724E+01  1.6022E-14  9.0
       -1    1    3    3    0  500  2.73111051807E+00  2.29819670624E+01 -1.60830040095E+01  2.81832005402E+01  0.00000000000E+00  0.0000E+00  9.0
        2    1    3    3  500    0 -1.83162504959E+01 -2.01907024457E+01 -2.19661344668E+02  2.21346461094E+02  0.00000000000E+00  0.0000E+00  9.0
       13    1    4    4    0    0 -2.42848623361E+01  2.48403822121E+01  9.39145543693E+01  1.00133679759E+02  1.05700000000E-01  0.0000E+00  9.0
      -14    1    4    4    0    0  3.98700023139E+01 -2.76316468289E+01  1.42014468748E+02  1.50070764391E+02  0.00000000000E+00  0.0000E+00  9.0
</event>
<event>
 8    1   5.1859766E+00   5.0000000E+02  -1.0000000E+00   9.3490000E-02
       11   -1    0    0    0    0  0.00000000000E+00  0.00000000000E+00  2.49999944540E+02  2.49999944540E+02  0.00000000000E+00  0.0000E+00  9.0
      -11   -1    0    0    0    0  0.00000000000E+00  0.00000000000E+00 -2.49999226460E+02  2.49999226460E+02  0.00000000000E+00  0.0000E+00  9.0
       24    2    1    2    0    0 -4.92312112075E+01  1.23306174293E+02 -1.96070435576E+02  2.50933812410E+02  8.30423851285E+01  5.0291E-14  9.0
      -24    2    1    2    0    0  4.92312112075E+01 -1.23306174293E+02  1.96071153656E+02  2.49065358583E+02  7.72109498343E+01  2.1752E-14  9.0
       -1    1    3    3    0  500 -3.85027199399E+01  1.02710301124E+02 -8.86571559148E+01  1.41038848176E+02  0.00000000000E+00  0.0000E+00  9.0
        2    1    3    3  500    0 -1.07284912677E+01  2.05958731688E+01 -1.07413279661E+02  1.09894964234E+02  0.00000000000E+00  0.0000E+00  9.0
        3    1    4    4  504    0 -5.40738182666E+00 -8.83173467397E+01  1.06455952277E+02  1.38427104602E+02  0.00000000000E+00  0.0000E+00  9.0
       -4    1    4    4    0  504  5.46385930342E+01 -3.49888275534E+01  8.96152013786E+01  1.10638253980E+02  5.87386917370E-01  0.0000E+00  9.0
</event>
<event>
 8    1   5.1859766E+00   4.9690000E+02  -1.0000000E+00   9.3560000E-02
       11   -1    0    0    0    0  0.00000000000E+00  0.00000000000E+00  2.47488085600E+02  2.47488085600E+02  0.00000000000E+00  0.0000E+00  9.0
      -11   -1    0    0    0    0  0.00000000000E+00  0.00000000000E+00 -2.49459994400E+02  2.49459994400E+02  0.00000000000E+00  0.0000E+00  9.0
       24    2    1    2    0    0 -1.14472753675E+02 -5.62702515385E+01 -1.98552916669E+02  2.49150021500E+02  7.98881715511E+01  9.8791E-14  9.0
      -24    2    1    2    0    0  1.14472753675E+02  5.62702515385E+01  1.96581007869E+02  2.47798058498E+02  8.05570145819E+01  1.6274E-14  9.0
      -13    1    3    3    0    0 -8.64389075283E+01 -7.64286778501E+01 -1.61739545438E+02  1.98677425148E+02  1.05700000000E-01  0.0000E+00  9.0
       14    1    3    3    0    0 -2.80338461464E+01  2.01584263116E+01 -3.68133712309E+01  5.04725963519E+01  0.00000000000E+00  0.0000E+00  9.0
       13    1    4    4    0    0  9.51057948023E+01  3.36614981847E+01  8.37911255973E+01  1.31145615887E+02  1.05700000000E-01  0.0000E+00  9.0
      -14    1    4    4    0    0  1.93669588723E+01  2.26087533538E+01  1.12789882272E+02  1.16652442611E+02  0.00000000000E+00  0.0000E+00  9.0
</event>
<event>
 8    1   5.1859766E+00   4.9900000E+02  -1.0000000E+00   9.3510000E-02
       11   -1    0    0    0    0  0.00000000000E+00  0.00000000000E+00  2.49018200210E+02  2.49018200210E+02  0.00000000000E+00  0.0000E+00  9.0
      -11   -1    0    0    0    0  0.00000000000E+00  0.00000000000E+00 -2.49989343020E+02  2.49989343020E+02  0.00000000000E+00  0.0000E+00  9.0
       24    2    1    2    0    0 -7.23388522838E+01  7.00940204871E+00 -2.24357448418E+02  2.49361923040E+02  8.10127319291E+01  1.2678E-13  9.0
      -24    2    1    2    0    0  7.23388522838E+01 -7.00940204871E+00  2.23386305618E+02  2.49645620195E+02  8.44952831703E+01  1.5120E-14  9.0
       -1    1    3    3    0  500 -5.51966844840E+00  3.26206564735E+01 -4.19933705746E+01  5.34604259314E+01  0.00000000000E+00  0.0000E+00  9.0
        2    1    3    3  500    0 -6.68191838354E+01 -2.56112544248E+01 -1.82364077843E+02  1.95901497108E+02  0.00000000000E+00  0.0000E+00  9.0
        3    1    4    4  504    0 -1.19743569836E+01  7.10566474805E+00  9.09804119274E+01  9.20397253970E+01  0.00000000000E+00  0.0000E+00  9.0
       -4    1    4    4    0  504  8.43132092674E+01 -1.41150667968E+01  1.32405893690E+02  1.57605894798E+02  5.87386917370E-01  0.0000E+00  9.0
</event>
<event>
 8    1   5.1859766E+00   4.9940000E+02  -1.0000000E+00   9.3500000E-02
       11   -1    0    0    0    0  0.00000000000E+00  0.00000000000E+00  2.49700159610E+02  2.49700159610E+02  0.00000000000E+00  0.0000E+00  9.0
      -11   -1    0    0    0    0  0.00000000000E+00  0.00000000000E+00 -2.49684768300E+02  2.49684768300E+02  0.00000000000E+00  0.0000E+00  9.0
       24    2    1    2    0    0  5.39322425401E+00  1.41409225353E+01 -2.40765168589E+02  2.45322733820E+02  4.45682035235E+01  6.8341E-14  9.0
      -24    2    1    2    0    0 -5.39322425401E+00 -1.41409225353E+01  2.40780559899E+02  2.54062194085E+02  7.96446349735E+01  6.2787E-14  9.0
      -13    1    3    3    0    0  2.20955921677E+01  1.34638500451E+01 -9.03647619941E+01  9.39962330842E+01  1.05700000000E-01  0.0000E+00  9.0
       14    1    3    3    0    0 -1.67023679137E+01  6.77072490196E-01 -1.50400406595E+02  1.51326500736E+02  0.00000000000E+00  0.0000E+00  9.0
        3    1    4    4  500    0  3.09734387114E+01 -1.76691174265E+01  6.14537769558E+01  7.10501113185E+01  0.00000000000E+00  0.0000E+00  9.0
       -4    1    4    4    0  500 -3.63666629654E+01  3.52819489123E+00  1.79326782943E+02  1.83012082766E+02  5.87386917370E-01  0.0000E+00  9.0
</event>
<event>
 8    1   5.1859766E+00   3.1430000E+02  -1.0000000E+00   9.8930000E-02
       11   -1    0    0    0    0  0.00000000000E+00  0.00000000000E+00  1.45405230450E+02  1.45405230450E+02  0.00000000000E+00  0.0000E+00  9.0
      -11   -1    0    0    0    0  0.00000000000E+00  0.00000000000E+00 -1.69849245040E+02  1.69849245040E+02  0.00000000000E+00  0.0000E+00  9.0
       24    2    1    2    0    0 -7.71368550614E+00  6.75693458792E+00 -1.46872285474E+02  1.67671107318E+02  8.02307601858E+01  1.6560E-13  9.0
      -24    2    1    2    0    0  7.71368550614E+00 -6.75693458792E+00  1.22428270884E+02  1.47583368171E+02  8.17741520291E+01  1.8632E-15  9.0
       -3    1    3    3    0  500 -2.43816248703E+00 -2.17361706903E+01 -4.43838873847E+00  2.23182671188E+01  0.00000000000E+00  0.0000E+00  9.0
        4    1    3    3  500    0 -5.27552301910E+00  2.84931052782E+01 -1.42433896735E+02  1.45352840199E+02  5.87386917370E-01  0.0000E+00  9.0
       13    1    4    4    0    0  3.58685122300E+01 -1.23099712742E+01  1.09921686715E+02  1.16279292848E+02  1.05700000000E-01  0.0000E+00  9.0
      -14    1    4    4    0    0 -2.81548267238E+01  5.55303668630E+00  1.25065841683E+01  3.13040753233E+01  0.00000000000E+00  0.0000E+00  9.0
</event>
<event>
 8    1   5.1859766E+00   4.9850000E+02  -1.0000000E+00   9.3520000E-02
       11   -1    0    0    0    0  0.00000000000E+00  0.00000000000E+00  2.50000000000E+02  2.50000000000E+02  0.00000000000E+00  0.0000E+00  9.0
      -11   -1    0    0    0    0  0.00000000000E+00  0.00000000000E+00 -2.48465153690E+02  2.48465153690E+02  0.00000000000E+00  0.0000E+00  9.0
       24    2    1    2    0    0 -1.14788171113E+01 -2.25299440182E+01 -2.34019186289E+02  2.48688396178E+02  8.02594369682E+01  3.0868E-13  9.0
      -24    2    1    2    0    0  1.14788171113E+01  2.25299440182E+01  2.35554032599E+02  2.49776757514E+02  7.91414221544E+01  2.0946E-13  9.0
       -1    1    3    3    0  500 -3.88903042732E+01 -3.32227193922E+01 -1.11286723454E+02  1.22478323256E+02  0.00000000000E+00  0.0000E+00  9.0
        2    1    3    3  500    0  2.74114871620E+01  1.06927753740E+01 -1.22732462835E+02  1.26210072923E+02  0.00000000000E+00  0.0000E+00  9.0
        1    1    4    4  504    0 -1.53998402717E+01  2.34697823124E+01  2.12520709738E+02  2.14366596815E+02  0.00000000000E+00  0.0000E+00  9.0
       -2    1    4    4    0  504  2.68786573830E+01 -9.39838294156E-01  2.30333228609E+01  3.54101606992E+01  0.00000000000E+00  0.0000E+00  9.0
</event>
<event>
 8    1   5.1859766E+00   4.5540000E+02  -1.0000000E+00   9.4540000E-02
       11   -1    0    0    0    0  0.00000000000E+00  0.00000000000E+00  2.08599746450E+02  2.08599746450E+02  0.00000000000E+00  0.0000E+00  9.0
      -11   -1    0    0    0    0  0.00000000000E+00  0.00000000000E+00 -2.48524841310E+02  2.48524841310E+02  0.00000000000E+00  0.0000E+00  9.0
       24    2    1    2    0    0  1.97663626039E+01 -1.02281488827E+01 -2.32399585238E+02  2.46870271069E+02  8.02498560671E+01  5.0289E-15  9.0
      -24    2    1    2    0    0 -1.97663626039E+01  1.02281488827E+01  1.92474490378E+02  2.10254316693E+02  8.16402114248E+01  6.2547E-14  9.0
       -1    1    3    3    0  500  1.53790874116E+01 -4.52288674007E+01 -1.42695517190E+02  1.50479823903E+02  0.00000000000E+00  0.0000E+00  9.0
        2    1    3    3  500    0  4.38727519234E+00  3.50007185180E+01 -8.97040680485E+01  9.63904471659E+01  0.00000000000E+00  0.0000E+00  9.0
        3    1    4    4  504    0 -3.30141818385E+01 -1.01514933741E+01  2.93438120947E+01  4.53216099498E+01  0.00000000000E+00  0.0000E+00  9.0
       -4    1    4    4    0  504  1.32478192345E+01  2.03796422568E+01  1.63130678284E+02  1.64932706743E+02  5.87386917370E-01  0.0000E+00  9.0
</event>
<event>
 8    1   5.1859766E+00   4.0380000E+02  -1.0000000E+00   9.5920000E-02
       11   -1    0    0    0    0  0.00000000000E+00  0.00000000000E+00  2.49874799450E+02  2.49874799450E+02  0.00000000000E+00  0.0000E+00  9.0
      -11   -1    0    0    0    0  0.00000000000E+00  0.00000000000E+00 -1.63135193990E+02  1.63135193990E+02  0.00000000000E+00  0.0000E+00  9.0
       24    2    1    2    0    0  1.57991400024E+02 -8.80473678831E+01  3.46389928163E+00  1.98218594112E+02  8.10246319392E+01  1.7531E-15  9.0
      -24    2    1    2    0    0 -1.57991400024E+02  8.80473678831E+01  8.32757061800E+01  2.14791399324E+02  8.05411727700E+01  2.6140E-14  9.0
      -13    1    3    3    0    0  1.57654401095E+02 -8.50039740200E+01  2.10723529644E+01  1.80345892706E+02  1.05700000000E-01  0.0000E+00  9.0
       14    1    3    3    0    0  3.36998929397E-01 -3.04339386301E+00 -1.76084536827E+01  1.78727014069E+01  0.00000000000E+00  0.0000E+00  9.0
       13    1    4    4    0    0  2.48831869221E+00  2.42864663550E+01  3.83799502798E+00  2.47136714442E+01  1.05700000000E-01  0.0000E+00  9.0
      -14    1    4    4    0    0 -1.60479718717E+02  6.37609015280E+01  7.94377111520E+01  1.90077727880E+02  0.00000000000E+00  0.0000E+00  9.0
</event>
<event>
 8    1   5.1859766E+00   4.9830000E+02  -1.0000000E+00   9.3530000E-02
       11   -1    0    0    0    0  0.00000000000E+00  0.00000000000E+00  2.49766042290E+02  2.49766042290E+02  0.00000000000E+00  0.0000E+00  9.0
      -11   -1    0    0    0    0  0.00000000000E+00  0.00000000000E+00 -2.48517934960E+02  2.48517934960E+02  0.00000000000E+00  0.0000E+00  9.0
       24    2    1    2    0    0 -1.02939361379E+01 -3.39041266126E+01 -2.32743010674E+02  2.48700464975E+02  8.01695536877E+01  1.4262E-14  9.0
      -24    2    1    2    0    0  1.02939361379E+01  3.39041266126E+01  2.33991118004E+02  2.49583512279E+02  7.92756669726E+01  1.2788E-13  9.0
       -3    1    3    3    0  500 -2.19290210813E+01  1.89217707731E+01 -1.22803426583E+02  1.26172885182E+02  0.00000000000E+00  0.0000E+00  9.0
        4    1    3    3  500    0  1.16350849434E+01 -5.28258973857E+01 -1.09939584092E+02  1.22527579793E+02  5.87386917370E-01  0.0000E+00  9.0
        3    1    4    4  504    0  3.56301653130E+00 -1.15805189647E+01  1.06632877875E+00  1.21630819844E+01  0.00000000000E+00  0.0000E+00  9.0
       -4    1    4    4    0  504  6.73091960660E+00  4.54846455773E+01  2.32924789226E+02  2.37420430295E+02  5.87386917370E-01  0.0000E+00  9.0
</event>
<event>
 8    1   5.1859766E+00   4.9910000E+02  -1.0000000E+00   9.3510000E-02
       11   -1    0    0    0    0  0.00000000000E+00  0.00000000000E+00  2.49999853670E+02  2.49999853670E+02  0.00000000000E+00  0.0000E+00  9.0
      -11   -1    0    0    0    0  0.00000000000E+00  0.00000000000E+00 -2.49111634300E+02  2.49111634300E+02  0.00000000000E+00  0.0000E+00  9.0
       24    2    1    2    0    0  1.53845723984E+02  6.83599032458E+00 -1.78789034320E+02  2.49497832655E+02  8.10457411242E+01  9.7123E-15  9.0
      -24    2    1    2    0    0 -1.53845723984E+02 -6.83599032458E+00  1.79677253700E+02  2.49613655319E+02  7.94218098039E+01  3.9701E-15  9.0
       -3    1    3    3    0  500  9.28562353172E+01 -3.54474922388E+01 -9.37854254213E+01  1.36654715121E+02  0.00000000000E+00  0.0000E+00  9.0
        4    1    3    3  500    0  6.09894886665E+01  4.22834825634E+01 -8.50036088992E+01  1.12843117534E+02  5.87386917370E-01  0.0000E+00  9.0
        1    1    4    4  504    0 -5.41054696773E+01  2.66038898903E+01  3.18812532674E+01  6.82025154683E+01  0.00000000000E+00  0.0000E+00  9.0
       -2    1    4    4    0  504 -9.97402543063E+01 -3.34398802149E+01  1.47796000433E+02  1.81411139851E+02  0.00000000000E+00  0.0000E+00  9.0
</event>
<event>
 8    1   5.1859766E+00   4.8910000E+02  -1.0000000E+00   9.3740000E-02
       11   -1    0    0    0    0  0.00000000000E+00  0.00000000000E+00  2.39211465920E+02  2.39211465920E+02  0.00000000000E+00  0.0000E+00  9.0
      -11   -1    0    0    0    0  0.00000000000E+00  0.00000000000E+00 -2.49972001650E+02  2.49972001650E+02  0.00000000000E+00  0.0000E+00  9.0
       24    2    1    2    0    0  5.06760087159E+01 -1.54068165618E+02 -1.69728789891E+02  2.48285960990E+02  8.08269682141E+01  2.8652E-13  9.0
      -24    2    1    2    0    0 -5.06760087159E+01  1.54068165618E+02  1.58968254151E+02  2.40897506573E+02  8.03470306164E+01  1.7456E-13  9.0
       -1    1    3    3    0  500  3.73205380447E+01 -1.73982249144E+01 -2.23658228232E+01  4.68588393014E+01  0.00000000000E+00  0.0000E+00  9.0
        2    1    3    3  500    0  1.33554706712E+01 -1.36669940704E+02 -1.47362967067E+02  2.01427121689E+02  0.00000000000E+00  0.0000E+00  9.0
        1    1    4    4  504    0 -1.77081921580E+01  1.37587437512E+02  9.86972933762E+01  1.70249930251E+02  0.00000000000E+00  0.0000E+00  9.0
       -2    1    4    4    0  504 -3.29678165579E+01  1.64807281067E+01  6.02709607743E+01  7.06475763220E+01  0.00000000000E+00  0.0000E+00  9.0
</event>
<event>
 8    1   5.1859766E+00   4.9920000E+02  -1.0000000E+00   9.3510000E-02
       11   -1    0    0    0    0  0.00000000000E+00  0.00000000000E+00  2.49999977030E+02  2.49999977030E+02  0.00000000000E+00  0.0000E+00  9.0
      -11   -1    0    0    0    0  0.00000000000E+00  0.00000000000E+00 -2.49182483470E+02  2.49182483470E+02  0.00000000000E+00  0.0000E+00  9.0
       24    2    1    2    0    0 -7.33249187211E+01 -7.22984138868E+01 -2.12287068116E+02  2.49524508653E+02  8.11977633529E+01  3.1215E-15  9.0
      -24    2    1    2    0    0  7.33249187211E+01  7.22984138868E+01  2.13104561676E+02  2.49657951857E+02  7.94476831800E+01  2.2364E-13  9.0
       -1    1    3    3    0  500 -1.75224480854E+01 -5.76518731680E+01 -5.34923710527E+01  8.05742417123E+01  0.00000000000E+00  0.0000E+00  9.0
        2    1    3    3  500    0 -5.58024706357E+01 -1.46465407188E+01 -1.58794697063E+02  1.68950266941E+02  0.00000000000E+00  0.0000E+00  9.0
        3    1    4    4  504    0 -8.85353459964E+00 -5.98460850272E+00  3.40912024258E+00  1.12170724642E+01  0.00000000000E+00  0.0000E+00  9.0
       -4    1    4    4    0  504  8.21784533207E+01  7.82830223895E+01  2.09695441433E+02  2.38440879393E+02  5.87386917370E-01  0.0000E+00  9.0
</event>
<event>
 8    1   5.1859766E+00   4.9560000E+02  -1.0000000E+00   9.3590000E-02
       11   -1    0    0    0    0  0.00000000000E+00  0.00000000000E+00  2.45663759110E+02  2.45663759110E+02  0.00000000000E+00  0.0000E+00  9.0
      -11   -1    0    0    0    0  0.00000000000E+00  0.00000000000E+00 -2.50000000000E+02  2.50000000000E+02  0.00000000000E+00  0.0000E+00  9.0
       24    2    1    2    0    0  4.13988735755E+01 -1.54332712925E+01 -2.32223595849E+02  2.49796347768E+02  8.07363876634E+01  1.0383E-13  9.0
      -24    2    1    2    0    0 -4.13988735755E+01  1.54332712925E+01  2.27887354959E+02  2.45867411333E+02  8.10313816320E+01  9.5701E-14  9.0
       -1    1    3    3    0  500  5.74578974291E+01 -3.45585925949E+01 -1.67437192925E+02  1.80363299686E+02  0.00000000000E+00  0.0000E+00  9.0
        2    1    3    3  500    0 -1.60590238536E+01  1.91253213023E+01 -6.47864029241E+01  6.94330480816E+01  0.00000000000E+00  0.0000E+00  9.0
        3    1    4    4  504    0  5.32932534872E+00  3.81978830584E+01  1.21230442903E+02  1.27217531281E+02  0.00000000000E+00  0.0000E+00  9.0
       -4    1    4    4    0  504 -4.67281989242E+01 -2.27646117659E+01  1.06656912055E+02  1.18649880051E+02  5.87386917370E-01  0.0000E+00  9.0
</event>
<event>
 8    1   5.1859766E+00   5.0000000E+02  -1.0000000E+00   9.3490000E-02
       11   -1    0    0    0    0  0.00000000000E+00  0.00000000000E+00  2.49999726870E+02  2.49999726870E+02  0.00000000000E+00  0.0000E+00  9.0
      -11   -1    0    0    0    0  0.00000000000E+00  0.00000000000E+00 -2.49977974180E+02  2.49977974180E+02  0.00000000000E+00  0.0000E+00  9.0
       24    2    1    2    0    0  6.48843958189E+01 -2.22819781585E+01 -2.30873799635E+02  2.54047838314E+02  8.08153538794E+01  1.0887E-14  9.0
      -24    2    1    2    0    0 -6.48843958189E+01  2.22819781585E+01  2.30895552325E+02  2.45929862733E+02  4.96212648856E+01  1.5295E-15  9.0
       -3    1    3    3    0  500  7.73943450839E+01  3.29048292781E+00 -1.72807351590E+02  1.89375533511E+02  0.00000000000E+00  0.0000E+00  9.0
        4    1    3    3  500    0 -1.25099492651E+01 -2.55724610863E+01 -5.80664480445E+01  6.46723048029E+01  5.87386917370E-01  0.0000E+00  9.0
        3    1    4    4  504    0 -6.33028904586E+01  3.33213386100E+01  2.14315282309E+02  2.25939389613E+02  0.00000000000E+00  0.0000E+00  9.0
       -4    1    4    4    0  504 -1.58150536027E+00 -1.10393604515E+01  1.65802700153E+01  1.99904731198E+01  5.87386917370E-01  0.0000E+00  9.0
</event>
<event>
 8    1   5.1859766E+00   3.6570000E+02  -1.0000000E+00   9.7090000E-02
       11   -1    0    0    0    0  0.00000000000E+00  0.00000000000E+00  1.39620819850E+02  1.39620819850E+02  0.00000000000E+00  0.0000E+00  9.0
      -11   -1    0    0    0    0  0.00000000000E+00  0.00000000000E+00 -2.39487802360E+02  2.39487802360E+02  0.00000000000E+00  0.0000E+00  9.0
       24    2    1    2    0    0 -7.60646762560E+01  8.99711149258E+00 -2.00034550311E+02  2.30581905277E+02  8.53663325549E+01  8.0539E-14  9.0
      -24    2    1    2    0    0  7.60646762560E+01 -8.99711149258E+00  1.00167567791E+02  1.48526716939E+02  7.84847820821E+01  9.3016E-15  9.0
      -13    1    3    3    0    0 -8.62411088618E+01 -1.00423769433E+01 -1.22845559627E+02  1.50430784366E+02  1.05700000000E-01  0.0000E+00  9.0
       14    1    3    3    0    0  1.01764326058E+01  1.90394884359E+01 -7.71889906841E+01  8.01511209111E+01  0.00000000000E+00  0.0000E+00  9.0
        1    1    4    4  500    0  4.99793415506E+00  1.75677434062E+01 -4.91781346696E+00  1.89153335551E+01  0.00000000000E+00  0.0000E+00  9.0
       -2    1    4    4    0  500  7.10667421010E+01 -2.65648548988E+01  1.05085381258E+02  1.29611383384E+02  0.00000000000E+00  0.0000E+00  9.0
</event>
<event>
 8    1   5.1859766E+00   4.9220000E+02  -1.0000000E+00   9.3660000E-02
       11   -1    0    0    0    0  0.00000000000E+00  0.00000000000E+00  2.42285951150E+02  2.42285951150E+02  0.00000000000E+00  0.0000E+00  9.0
      -11   -1    0    0    0    0  0.00000000000E+00  0.00000000000E+00 -2.49999993610E+02  2.49999993610E+02  0.00000000000E+00  0.0000E+00  9.0
       24    2    1    2    0    0 -1.97623065559E+01  1.11899917548E+02 -2.06728528011E+02  2.48149334848E+02  7.70017388367E+01  1.0335E-14  9.0
      -24    2    1    2    0    0  1.97623065559E+01 -1.11899917548E+02  1.99014485551E+02  2.44136609909E+02  8.41651859774E+01  4.3744E-14  9.0
       -3    1    3    3    0  500 -1.41155685676E+00 -8.61058236510E+00 -4.38281046961E+01  4.46882242059E+01  0.00000000000E+00  0.0000E+00  9.0
        4    1    3    3  500    0 -1.83507496991E+01  1.20510499913E+02 -1.62900423315E+02  2.03461110642E+02  5.87386917370E-01  0.0000E+00  9.0
        3    1    4    4  504    0  3.11010190824E+00 -1.19583656740E+02  1.87703736122E+02  2.22581706902E+02  0.00000000000E+00  0.0000E+00  9.0
       -4    1    4    4    0  504  1.66522046476E+01  7.68373919131E+00  1.13107494291E+01  2.15549030066E+01  5.87386917370E-01  0.0000E+00  9.0
</event>
<event>
 8    1   5.1859766E+00   4.4490000E+02  -1.0000000E+00   9.4800000E-02
       11   -1    0    0    0    0  0.00000000000E+00  0.00000000000E+00  2.09929076950E+02  2.09929076950E+02  0.00000000000E+00  0.0000E+00  9.0
      -11   -1    0    0    0    0  0.00000000000E+00  0.00000000000E+00 -2.35767026360E+02  2.35767026360E+02  0.00000000000E+00  0.0000E+00  9.0
       24    2    1    2    0    0 -1.35660364443E+01 -9.99893414635E-01 -2.23579221498E+02  2.38211673803E+02  8.10684656251E+01  2.1303E-13  9.0
      -24    2    1    2    0    0  1.35660364443E+01  9.99893414635E-01  1.97741272088E+02  2.07484429513E+02  6.13444428773E+01  1.2635E-13  9.0
       -1    1    3    3    0  500 -3.96561087171E+01  4.70106313535E+00 -5.75471857566E+01  7.00455961620E+01  0.00000000000E+00  0.0000E+00  9.0
        2    1    3    3  500    0  2.60900722728E+01 -5.70095654998E+00 -1.66032035741E+02  1.68166077641E+02  0.00000000000E+00  0.0000E+00  9.0
        1    1    4    4  504    0  2.97971358404E+01  1.35323068082E+01  6.10941109787E+01  6.93071643347E+01  0.00000000000E+00  0.0000E+00  9.0
       -2    1    4    4    0  504 -1.62310993961E+01 -1.25324133935E+01  1.36647161109E+02  1.38177265179E+02  0.00000000000E+00  0.0000E+00  9.0
</event>
<event>
 8    1   5.1859766E+00   4.9260000E+02  -1.0000000E+00   9.3650000E-02
       11   -1    0    0    0    0  0.00000000000E+00  0.00000000000E+00  2.43818889790E+02  2.43818889790E+02  0.00000000000E+00  0.0000E+00  9.0
      -11   -1    0    0    0    0  0.00000000000E+00  0.00000000000E+00 -2.48849223690E+02  2.48849223690E+02  0.00000000000E+00  0.0000E+00  9.0
       24    2    1    2    0    0  9.27275834452E+01 -1.30572698701E+01 -2.15660125162E+02  2.48458090695E+02  8.03320373140E+01  1.2341E-13  9.0
      -24    2    1    2    0    0 -9.27275834452E+01  1.30572698701E+01  2.10629791262E+02  2.44210022785E+02  8.06519016106E+01  1.0984E-14  9.0
       -3    1    3    3    0  500  6.26522224733E+01 -3.90615464981E+01 -8.86473793958E+01  1.15366647127E+02  0.00000000000E+00  0.0000E+00  9.0
        4    1    3    3  500    0  3.00753609719E+01  2.60042766280E+01 -1.27012745766E+02  1.33091443568E+02  5.87386917370E-01  0.0000E+00  9.0
       13    1    4    4    0    0 -2.50912796631E+01  3.99967391311E+01  1.12632238105E+02  1.22128390185E+02  1.05700000000E-01  0.0000E+00  9.0
      -14    1    4    4    0    0 -6.76363037821E+01 -2.69394692609E+01  9.79975531573E+01  1.22081632600E+02  0.00000000000E+00  0.0000E+00  9.0
</event>
<event>
 8    1   5.1859766E+00   4.9580000E+02  -1.0000000E+00   9.3590000E-02
       11   -1    0    0    0    0  0.00000000000E+00  0.00000000000E+00  2.46708172920E+02  2.46708172920E+02  0.00000000000E+00  0.0000E+00  9.0
      -11   -1    0    0    0    0  0.00000000000E+00  0.00000000000E+00 -2.49053140760E+02  2.49053140760E+02  0.00000000000E+00  0.0000E+00  9.0
       24    2    1    2    0    0 -6.53486299481E+01  8.78047643634E+01 -2.08787678857E+02  2.48969033932E+02  8.00822385637E+01  6.7718E-14  9.0
      -24    2    1    2    0    0  6.53486299481E+01 -8.78047643634E+01  2.06442711017E+02  2.46792279751E+02  7.94211327756E+01  1.7556E-13  9.0
       -3    1    3    3    0  500 -5.37583775318E+01  4.32072403375E+01 -1.84303663091E+02  1.96785845530E+02  0.00000000000E+00  0.0000E+00  9.0
        4    1    3    3  500    0 -1.15902524162E+01  4.45975240259E+01 -2.44840157667E+01  5.21831884017E+01  5.87386917370E-01  0.0000E+00  9.0
       13    1    4    4    0    0  3.88189869894E+01 -5.14436765121E+01  1.86942033633E+02  1.97738971160E+02  1.05700000000E-01  0.0000E+00  9.0
      -14    1    4    4    0    0  2.65296429587E+01 -3.63610878513E+01  1.95006773837E+01  4.90533085905E+01  0.00000000000E+00  0.0000E+00  9.0
</event>
<event>
 8    1   5.1859766E+00   4.5720000E+02  -1.0000000E+00   9.4490000E-02
       11   -1    0    0    0    0  0.00000000000E+00  0.00000000000E+00  2.48474591170E+02  2.48474591170E+02  0.00000000000E+00  0.0000E+00  9.0
      -11   -1    0    0    0    0  0.00000000000E+00  0.00000000000E+00 -2.10281489530E+02  2.10281489530E+02  0.00000000000E+00  0.0000E+00  9.0
       24    2    1    2    0    0 -1.85585381401E+01 -1.88333998296E+01 -1.94038488948E+02  2.11283418440E+02  7.93135009145E+01  8.5316E-14  9.0
      -24    2    1    2    0    0  1.85585381401E+01  1.88333998296E+01  2.32231590588E+02  2.47472662263E+02  8.13147625817E+01  3.6365E-13  9.0
       -1    1    3    3    0  500  1.69029954782E+01 -3.31918455010E+01 -1.41315849660E+02  1.46142325248E+02  0.00000000000E+00  0.0000E+00  9.0
        2    1    3    3  500    0 -3.54615336183E+01  1.43584456714E+01 -5.27226392879E+01  6.51410931912E+01  0.00000000000E+00  0.0000E+00  9.0
        1    1    4    4  504    0  1.85925537255E+01 -7.79243270753E+00  2.14585118095E+02  2.15529993202E+02  0.00000000000E+00  0.0000E+00  9.0
       -2    1    4    4    0  504 -3.40155854248E-02  2.66258325371E+01  1.76464724925E+01  3.19426690616E+01  0.00000000000E+00  0.0000E+00  9.0
</event>
<event>
 8    1   5.1859766E+00   5.0000000E+02  -1.0000000E+00   9.3490000E-02
       11   -1    0    0    0    0  0.00000000000E+00  0.00000000000E+00  2.50000000000E+02  2.50000000000E+02  0.00000000000E+00  0.0000E+00  9.0
      -11   -1    0    0    0    0  0.00000000000E+00  0.00000000000E+00 -2.50000000000E+02  2.50000000000E+02  0.00000000000E+00  0.0000E+00  9.0
       24    2    1    2    0    0 -2.20934881989E+01  9.94739328143E+00 -2.38609248189E+02  2.46307365715E+02  5.60880756505E+01  5.0771E-14  9.0
      -24    2    1    2    0    0  2.20934881989E+01 -9.94739328143E+00  2.38609248189E+02  2.53692634274E+02  8.26952629212E+01  1.0350E-13  9.0
       -3    1    3    3    0  500  1.89488756213E+01  4.83551694519E-01 -7.12114853402E+01  7.36910398482E+01  0.00000000000E+00  0.0000E+00  9.0
        4    1    3    3  500    0 -4.10423638202E+01  9.46384158691E+00 -1.67397762849E+02  1.72616325867E+02  5.87386917370E-01  0.0000E+00  9.0
        3    1    4    4  504    0 -3.11051510234E+01  2.31350602835E+00  9.85610413708E+01  1.03378728984E+02  0.00000000000E+00  0.0000E+00  9.0
       -4    1    4    4    0  504  5.31986392223E+01 -1.22608993098E+01  1.40048206818E+02  1.50313905289E+02  5.87386917370E-01  0.0000E+00  9.0
</event>
<event>
 8    1   5.1859766E+00   4.8960000E+02  -1.0000000E+00   9.3720000E-02
       11   -1    0    0    0    0  0.00000000000E+00  0.00000000000E+00  2.39728946290E+02  2.39728946290E+02  0.00000000000E+00  0.0000E+00  9.0
      -11   -1    0    0    0    0  0.00000000000E+00  0.00000000000E+00 -2.49995532050E+02  2.49995532050E+02  0.00000000000E+00  0.0000E+00  9.0
       24    2    1    2    0    0  5.00383507844E+00  6.95369999719E+01 -2.32179764620E+02  2.43940237823E+02  2.71838886002E+01  3.7052E-14  9.0
      -24    2    1    2    0    0 -5.00383507844E+00 -6.95369999719E+01  2.21913178860E+02  2.45784240513E+02  7.93977405370E+01  1.4644E-14  9.0
       -1    1    3    3    0  500  5.72372948348E+00  2.41009335454E+01 -4.54649067905E+01  5.17752240596E+01  0.00000000000E+00  0.0000E+00  9.0
        2    1    3    3  500    0 -7.19894405041E-01  4.54360664265E+01 -1.86714857830E+02  1.92165013763E+02  0.00000000000E+00  0.0000E+00  9.0
        3    1    4    4  504    0 -1.43670058340E+01  3.98822066170E+00  3.75171732964E+00  1.53750493853E+01  0.00000000000E+00  0.0000E+00  9.0
       -4    1    4    4    0  504  9.36317075552E+00 -7.35252206336E+01  2.18161461530E+02  2.30409191128E+02  5.87386917370E-01  0.0000E+00  9.0
</event>
<event>
 8    1   5.1859766E+00   4.9960000E+02  -1.0000000E+00   9.3500000E-02
       11   -1    0    0    0    0  0.00000000000E+00  0.00000000000E+00  2.50000000000E+02  2.50000000000E+02  0.00000000000E+00  0.0000E+00  9.0
      -11   -1    0    0    0    0  0.00000000000E+00  0.00000000000E+00 -2.49553629400E+02  2.49553629400E+02  0.00000000000E+00  0.0000E+00  9.0
       24    2    1    2    0    0  7.15648548374E+01  1.00541210517E+02 -2.01441443325E+02  2.49693663300E+02  8.08591797095E+01  1.6345E-13  9.0
      -24    2    1    2    0    0 -7.15648548374E+01 -1.00541210517E+02  2.01887813925E+02  2.49859966099E+02  8.02573970897E+01  9.9942E-14  9.0
       -3    1    3    3    0  500  1.21968354187E+01  8.43144800779E+01 -1.29590940334E+02  1.55085480177E+02  0.00000000000E+00  0.0000E+00  9.0
        4    1    3    3  500    0  5.93680194187E+01  1.62267304391E+01 -7.18505029905E+01  9.46081831229E+01  5.87386917370E-01  0.0000E+00  9.0
       13    1    4    4    0    0 -7.23148821200E+00  1.31374980270E+01  1.11673199843E+01  1.86978203086E+01  1.05700000000E-01  0.0000E+00  9.0
      -14    1    4    4    0    0 -6.43333666254E+01 -1.13678708544E+02  1.90720493941E+02  2.31162145791E+02  0.00000000000E+00  0.0000E+00  9.0
</event>
<event>
 8    1   5.1859766E+00   2.4890000E+02  -1.0000000E+00   1.0190000E-01
       11   -1    0    0    0    0  0.00000000000E+00  0.00000000000E+00  2.49558570300E+02  2.49558570300E+02  0.00000000000E+00  0.0000E+00  9.0
      -11   -1    0    0    0    0  0.00000000000E+00  0.00000000000E+00 -6.20756606070E+01  6.20756606070E+01  0.00000000000E+00  0.0000E+00  9.0
       24    2    1    2    0    0  4.27452942004E+01 -6.06315579751E+01  1.64514459449E+01  1.09827933090E+02  7.92980378974E+01  8.5829E-15  9.0
      -24    2    1    2    0    0 -4.27452942004E+01  6.06315579751E+01  1.71031463749E+02  2.01806297817E+02  7.72701381372E+01  1.8099E-13  9.0
       -1    1    3    3    0  500  1.60508808243E+01 -1.67884417486E+01  4.53281046380E+01  5.09325006421E+01  0.00000000000E+00  0.0000E+00  9.0
        2    1    3    3  500    0  2.66944133761E+01 -4.38431162265E+01 -2.88766586932E+01  5.88954324479E+01  0.00000000000E+00  0.0000E+00  9.0
        1    1    4    4  504    0 -1.67716448319E+01  3.22515603073E-01 -1.84802427673E+00  1.68762341892E+01  0.00000000000E+00  0.0000E+00  9.0
       -2    1    4    4    0  504 -2.59736493685E+01  6.03090423720E+01  1.72879488026E+02  1.84930063628E+02  0.00000000000E+00  0.0000E+00  9.0
</event>
<event>
 8    1   5.1859766E+00   5.0000000E+02  -1.0000000E+00   9.3490000E-02
       11   -1    0    0    0    0  0.00000000000E+00  0.00000000000E+00  2.49999990540E+02  2.49999990540E+02  0.00000000000E+00  0.0000E+00  9.0
      -11   -1    0    0    0    0  0.00000000000E+00  0.00000000000E+00 -2.49999514610E+02  2.49999514610E+02  0.00000000000E+00  0.0000E+00  9.0
       24    2    1    2    0    0 -9.70878053150E+01  8.75754255702E+00 -2.16362860965E+02  2.50109603999E+02  7.89885429352E+01  3.0505E-13  9.0
      -24    2    1    2    0    0  9.70878053150E+01 -8.75754255702E+00  2.16363336895E+02  2.49889901155E+02  7.82887773221E+01  1.4363E-13  9.0
      -13    1    3    3    0    0 -9.61319853392E+01  9.72559371553E+00 -2.23158952524E+02  2.43178689532E+02  1.05700000000E-01  0.0000E+00  9.0
       14    1    3    3    0    0 -9.55819975766E-01 -9.68051158509E-01  6.79609155895E+00  6.93091446703E+00  0.00000000000E+00  0.0000E+00  9.0
       13    1    4    4    0    0  6.93652964412E+01  2.33957362765E+01  8.67985069665E+01  1.13546892562E+02  1.05700000000E-01  0.0000E+00  9.0
      -14    1    4    4    0    0  2.77225088738E+01 -3.21532788335E+01  1.29564829928E+02  1.36343008594E+02  0.00000000000E+00  0.0000E+00  9.0
</event>
<event>
 8    1   5.1859766E+00   4.8560000E+02  -1.0000000E+00   9.3820000E-02
       11   -1    0    0    0    0  0.00000000000E+00  0.00000000000E+00  2.50000000000E+02  2.50000000000E+02  0.00000000000E+00  0.0000E+00  9.0
      -11   -1    0    0    0    0  0.00000000000E+00  0.00000000000E+00 -2.35804827610E+02  2.35804827610E+02  0.00000000000E+00  0.0000E+00  9.0
       24    2    1    2    0    0  1.18973585459E+02  6.03817778772E+01 -1.78030466440E+02  2.35775216107E+02  7.80668457955E+01  8.9496E-15  9.0
      -24    2    1    2    0    0 -1.18973585459E+02 -6.03817778772E+01  1.92225638830E+02  2.50029611498E+02  8.81103697938E+01  8.1450E-14  9.0
       -3    1    3    3    0  500  7.07577517060E+01  6.61810134697E+01 -7.72827861833E+01  1.23932300110E+02  0.00000000000E+00  0.0000E+00  9.0
        4    1    3    3  500    0  4.82158337534E+01 -5.79923559246E+00 -1.00747680257E+02  1.11842915996E+02  5.87386917370E-01  0.0000E+00  9.0
       13    1    4    4    0    0 -1.03241118918E+02 -4.83320671226E+01  8.81960198446E+01  1.44129339264E+02  1.05700000000E-01  0.0000E+00  9.0
      -14    1    4    4    0    0 -1.57324665410E+01 -1.20497107546E+01  1.04029618986E+02  1.05900272233E+02  0.00000000000E+00  0.0000E+00  9.0
</event>
<event>
 8    1   5.1859766E+00   3.4950000E+02  -1.0000000E+00   9.7630000E-02
       11   -1    0    0    0    0  0.00000000000E+00  0.00000000000E+00  1.22156712550E+02  1.22156712550E+02  0.00000000000E+00  0.0000E+00  9.0
      -11   -1    0    0    0    0  0.00000000000E+00  0.00000000000E+00 -2.50000000000E+02  2.50000000000E+02  0.00000000000E+00  0.0000E+00  9.0
       24    2    1    2    0    0  2.51927616426E+01 -2.07136567400E+01 -2.25029119855E+02  2.41431621263E+02  8.11627509877E+01  1.2399E-14  9.0
      -24    2    1    2    0    0 -2.51927616426E+01  2.07136567400E+01  9.71858324074E+01  1.30725091287E+02  8.11186332264E+01  8.0914E-14  9.0
       -3    1    3    3    0  500  1.41122689569E+01  2.40175780456E+01 -2.96202450199E+01  4.06615187287E+01  0.00000000000E+00  0.0000E+00  9.0
        4    1    3    3  500    0  1.10804926857E+01 -4.47312347856E+01 -1.95408874835E+02  2.00770102534E+02  5.87386917370E-01  0.0000E+00  9.0
        3    1    4    4  504    0  2.65824070980E+01  2.27585844895E+01  4.69139931955E+01  5.85277736860E+01  0.00000000000E+00  0.0000E+00  9.0
       -4    1    4    4    0  504 -5.17751687406E+01 -2.04492774955E+00  5.02718392118E+01  7.21973176008E+01  5.87386917370E-01  0.0000E+00  9.0
</event>
<event>
 8    1   5.1859766E+00   4.8860000E+02  -1.0000000E+00   9.3750000E-02
       11   -1    0    0    0    0  0.00000000000E+00  0.00000000000E+00  2.45057760610E+02  2.45057760610E+02  0.00000000000E+00  0.0000E+00  9.0
      -11   -1    0    0    0    0  0.00000000000E+00  0.00000000000E+00 -2.43545783650E+02  2.43545783650E+02  0.00000000000E+00  0.0000E+00  9.0
       24    2    1    2    0    0 -7.54691222625E+01 -1.51078088664E+02 -1.56362965170E+02  2.43827368576E+02  8.05123065161E+01  1.5883E-13  9.0
      -24    2    1    2    0    0  7.54691222625E+01  1.51078088664E+02  1.57874942120E+02  2.44776175682E+02  8.04406709471E+01  1.4020E-13  9.0
       -1    1    3    3    0  500 -1.98482543321E+01 -7.39905838448E+01 -2.28694928629E+01  7.99473164124E+01  0.00000000000E+00  0.0000E+00  9.0
        2    1    3    3  500    0 -5.56208679303E+01 -7.70875048193E+01 -1.33493472307E+02  1.63880052164E+02  0.00000000000E+00  0.0000E+00  9.0
        1    1    4    4  504    0  4.82888506485E+01  2.39364442756E+01  6.77808005560E+01  8.65967862310E+01  0.00000000000E+00  0.0000E+00  9.0
       -2    1    4    4    0  504  2.71802716140E+01  1.27141644389E+02  9.00941415641E+01  1.58179389451E+02  0.00000000000E+00  0.0000E+00  9.0
</event>
<event>
 8    1   5.1859766E+00   4.9480000E+02  -1.0000000E+00   9.3610000E-02
       11   -1    0    0    0    0  0.00000000000E+00  0.00000000000E+00  2.44835959530E+02  2.44835959530E+02  0.00000000000E+00  0.0000E+00  9.0
      -11   -1    0    0    0    0  0.00000000000E+00  0.00000000000E+00 -2.49999021790E+02  2.49999021790E+02  0.00000000000E+00  0.0000E+00  9.0
       24    2    1    2    0    0  2.27146384456E+01 -1.63403883879E+01 -2.30497754118E+02  2.48905400406E+02  8.96756410931E+01  6.7364E-14  9.0
      -24    2    1    2    0    0 -2.27146384456E+01  1.63403883879E+01  2.25334691858E+02  2.45929580920E+02  9.44598979712E+01  6.3087E-14  9.0
       -1    1    3    3    0  500  1.36978000963E+01  1.19102763513E+01 -1.74154595724E+00  1.82350594341E+01  0.00000000000E+00  0.0000E+00  9.0
        2    1    3    3  500    0  9.01683834922E+00 -2.82506647392E+01 -2.28756208160E+02  2.30670340971E+02  0.00000000000E+00  0.0000E+00  9.0
        1    1    4    4  504    0 -3.55232056439E+00  7.81398496028E+00  2.24784902134E+02  2.24948726535E+02  0.00000000000E+00  0.0000E+00  9.0
       -2    1    4    4    0  504 -1.91623178812E+01  8.52640342761E+00  5.49789723379E-01  2.09808543851E+01  0.00000000000E+00  0.0000E+00  9.0
</event>
<event>
 8    1   5.1859766E+00   5.0000000E+02  -1.0000000E+00   9.3490000E-02
       11   -1    0    0    0    0  0.00000000000E+00  0.00000000000E+00  2.49979921410E+02  2.49979921410E+02  0.00000000000E+00  0.0000E+00  9.0
      -11   -1    0    0    0    0  0.00000000000E+00  0.00000000000E+00 -2.50000000000E+02  2.50000000000E+02  0.00000000000E+00  0.0000E+00  9.0
       24    2    1    2    0    0 -5.99715140133E+01 -1.01132234982E+01 -2.28947198429E+02  2.50061519927E+02  8.00942213693E+01  2.8175E-13  9.0
      -24    2    1    2    0    0  5.99715140133E+01  1.01132234982E+01  2.28927119839E+02  2.49918401480E+02  7.97039611173E+01  1.3567E-14  9.0
       -1    1    3    3    0  500 -1.32400623740E+01  1.06858955344E+01 -1.74606399635E+02  1.75433413033E+02  0.00000000000E+00  0.0000E+00  9.0
        2    1    3    3  500    0 -4.67314516393E+01 -2.07991190326E+01 -5.43407987943E+01  7.46281068931E+01  0.00000000000E+00  0.0000E+00  9.0
        1    1    4    4  504    0  3.66501164845E+01 -3.40953241975E+01  1.06320658671E+02  1.17515125114E+02  0.00000000000E+00  0.0000E+00  9.0
       -2    1    4    4    0  504  2.33213975288E+01  4.42085476957E+01  1.22606461169E+02  1.32403276366E+02  0.00000000000E+00  0.0000E+00  9.0
</event>
<event>
 8    1   5.1859766E+00   4.8830000E+02  -1.0000000E+00   9.3750000E-02
       11   -1    0    0    0    0  0.00000000000E+00  0.00000000000E+00  2.38514081600E+02  2.38514081600E+02  0.00000000000E+00  0.0000E+00  9.0
      -11   -1    0    0    0    0  0.00000000000E+00  0.00000000000E+00 -2.49895448570E+02  2.49895448570E+02  0.00000000000E+00  0.0000E+00  9.0
       24    2    1    2    0    0  3.14446554406E+01  1.40890925711E+02 -1.85542214476E+02  2.48349774028E+02  8.00791958218E+01  1.7633E-13  9.0
      -24    2    1    2    0    0 -3.14446554406E+01 -1.40890925711E+02  1.74160847506E+02  2.40059756140E+02  8.03596068329E+01  2.2764E-14  9.0
       -3    1    3    3    0  500 -1.61783755028E+00 -6.39698460691E+00 -3.33298420817E+01  3.39767153149E+01  0.00000000000E+00  0.0000E+00  9.0
        4    1    3    3  500    0  3.30624929909E+01  1.47287910318E+02 -1.52212372394E+02  2.14373058713E+02  5.87386917370E-01  0.0000E+00  9.0
        1    1    4    4  504    0 -2.13649761982E+01 -7.21988369619E+01  1.47655527409E+02  1.65744650113E+02  0.00000000000E+00  0.0000E+00  9.0
       -2    1    4    4    0  504 -1.00796792424E+01 -6.86920887490E+01  2.65053200971E+01  7.43151060268E+01  0.00000000000E+00  0.0000E+00  9.0
</event>
<event>
 8    1   5.1859766E+00   4.9660000E+02  -1.0000000E+00   9.3570000E-02
       11   -1    0    0    0    0  0.00000000000E+00  0.00000000000E+00  2.48995331320E+02  2.48995331320E+02  0.00000000000E+00  0.0000E+00  9.0
      -11   -1    0    0    0    0  0.00000000000E+00  0.00000000000E+00 -2.47643064690E+02  2.47643064690E+02  0.00000000000E+00  0.0000E+00  9.0
       24    2    1    2    0    0  2.59640571038E+01 -5.23525582366E+01 -2.26010393383E+02  2.46754481009E+02  7.99509434966E+01  1.5824E-13  9.0
      -24    2    1    2    0    0 -2.59640571038E+01  5.23525582366E+01  2.27362660013E+02  2.49883914996E+02  8.56345093429E+01  2.4424E-14  9.0
      -13    1    3    3    0    0 -2.75213348411E+01 -2.42907880501E+01 -6.30034232892E+01  7.29171363548E+01  1.05700000000E-01  0.0000E+00  9.0
       14    1    3    3    0    0  5.34853919449E+01 -2.80617701865E+01 -1.63006970094E+02  1.73837344655E+02  0.00000000000E+00  0.0000E+00  9.0
       13    1    4    4    0    0  2.98264465628E+01  3.29962311974E+01  9.12595803293E+01  1.01521871349E+02  1.05700000000E-01  0.0000E+00  9.0
      -14    1    4    4    0    0 -5.57905036666E+01  1.93563270392E+01  1.36103079683E+02  1.48362043647E+02  0.00000000000E+00  0.0000E+00  9.0
</event>
<event>
 8    1   5.1859766E+00   4.3610000E+02  -1.0000000E+00   9.5030000E-02
       11   -1    0    0    0    0  0.00000000000E+00  0.00000000000E+00  2.01215638080E+02  2.01215638080E+02  0.00000000000E+00  0.0000E+00  9.0
      -11   -1    0    0    0    0  0.00000000000E+00  0.00000000000E+00 -2.36321221680E+02  2.36321221680E+02  0.00000000000E+00  0.0000E+00  9.0
       24    2    1    2    0    0  2.38967337165E+01 -1.53424644793E+01 -2.19172261176E+02  2.34806953221E+02  7.93182205628E+01  3.7776E-14  9.0
      -24    2    1    2    0    0 -2.38967337165E+01  1.53424644793E+01  1.84066677576E+02  2.02729906544E+02  8.00776380454E+01  1.3995E-13  9.0
       -3    1    3    3    0  500  3.36842722278E+01  2.49653852510E+00 -3.19904231840E+01  4.65215012184E+01  0.00000000000E+00  0.0000E+00  9.0
        4    1    3    3  500    0 -9.78753851133E+00 -1.78390030044E+01 -1.87181837992E+02  1.88285452003E+02  5.87386917370E-01  0.0000E+00  9.0
        3    1    4    4  504    0 -4.90627958959E+00 -1.79957736315E+01  1.50787968547E+02  1.51937259770E+02  0.00000000000E+00  0.0000E+00  9.0
       -4    1    4    4    0  504 -1.89904541269E+01  3.33382381108E+01  3.32787090297E+01  5.07926467744E+01  5.87386917370E-01  0.0000E+00  9.0
</event>
<event>
 8    1   5.1859766E+00   4.5450000E+02  -1.0000000E+00   9.4560000E-02
       11   -1    0    0    0    0  0.00000000000E+00  0.00000000000E+00  2.13571077510E+02  2.13571077510E+02  0.00000000000E+00  0.0000E+00  9.0
      -11   -1    0    0    0    0  0.00000000000E+00  0.00000000000E+00 -2.41756475590E+02  2.41756475590E+02  0.00000000000E+00  0.0000E+00  9.0
       24    2    1    2    0    0 -1.40985766145E+01  2.57109634211E+00 -2.26782682036E+02  2.41070145001E+02  8.04925433849E+01  9.7019E-15  9.0
      -24    2    1    2    0    0  1.40985766145E+01 -2.57109634211E+00  1.98597283956E+02  2.14257408101E+02  7.91200058929E+01  2.3323E-14  9.0
       -3    1    3    3    0  500 -4.36952560809E+01  7.47133472550E+00 -8.20441065761E+01  9.32541241471E+01  0.00000000000E+00  0.0000E+00  9.0
        4    1    3    3  500    0  2.95966794664E+01 -4.90023838339E+00 -1.44738575460E+02  1.47816020854E+02  5.87386917370E-01  0.0000E+00  9.0
        3    1    4    4  504    0  4.30042439885E+01 -6.22863262046E-02  6.78674758477E+01  8.03452746498E+01  0.00000000000E+00  0.0000E+00  9.0
       -4    1    4    4    0  504 -2.89056673740E+01 -2.50881001591E+00  1.30729808108E+02  1.33912133451E+02  5.87386917370E-01  0.0000E+00  9.0
</event>
<event>
 8    1   5.1859766E+00   4.1400000E+02  -1.0000000E+00   9.5630000E-02
       11   -1    0    0    0    0  0.00000000000E+00  0.00000000000E+00  2.47199668860E+02  2.47199668860E+02  0.00000000000E+00  0.0000E+00  9.0
      -11   -1    0    0    0    0  0.00000000000E+00  0.00000000000E+00 -1.73321518450E+02  1.73321518450E+02  0.00000000000E+00  0.0000E+00  9.0
       24    2    1    2    0    0 -7.93918041357E+00 -2.62192383799E+01 -1.54358708881E+02  1.76965848216E+02  8.20964151507E+01  5.3113E-14  9.0
      -24    2    1    2    0    0  7.93918041357E+00  2.62192383799E+01  2.28236859301E+02  2.43555339100E+02  8.04777001023E+01  1.5880E-13  9.0
       -3    1    3    3    0  500 -3.78251796456E+00  2.13368670250E+01 -1.08930504361E+02  1.11064954494E+02  0.00000000000E+00  0.0000E+00  9.0
        4    1    3    3  500    0 -4.15666244902E+00 -4.75561054049E+01 -4.54282045208E+01  6.59008937221E+01  5.87386917370E-01  0.0000E+00  9.0
        1    1    4    4  504    0  1.27981184526E+01 -2.72794579955E+01  6.36168827949E+01  7.03922470233E+01  0.00000000000E+00  0.0000E+00  9.0
       -2    1    4    4    0  504 -4.85893803907E+00  5.34986963754E+01  1.64619976506E+02  1.73163092077E+02  0.00000000000E+00  0.0000E+00  9.0
</event>
<event>
 8    1   5.1859766E+00   4.9850000E+02  -1.0000000E+00   9.3520000E-02
       11   -1    0    0    0    0  0.00000000000E+00  0.00000000000E+00  2.49247827240E+02  2.49247827240E+02  0.00000000000E+00  0.0000E+00  9.0
      -11   -1    0    0    0    0  0.00000000000E+00  0.00000000000E+00 -2.49236798810E+02  2.49236798810E+02  0.00000000000E+00  0.0000E+00  9.0
       24    2    1    2    0    0 -2.07239169689E+01  2.40767915038E+01 -2.34000277160E+02  2.49051271346E+02  7.91279560241E+01  5.9617E-14  9.0
      -24    2    1    2    0    0  2.07239169689E+01 -2.40767915038E+01  2.34011305590E+02  2.49433354705E+02  8.02903149331E+01  2.0224E-13  9.0
       -3    1    3    3    0  500 -3.16622065160E+01 -1.40229330300E+01 -4.99466362199E+01  6.07766767922E+01  0.00000000000E+00  0.0000E+00  9.0
        4    1    3    3  500    0  1.09382895471E+01  3.80997245338E+01 -1.84053640940E+02  1.88274594554E+02  5.87386917370E-01  0.0000E+00  9.0
        3    1    4    4  504    0  4.40279120374E+01  4.64260353366E+00  8.42764201504E+01  9.51972993278E+01  0.00000000000E+00  0.0000E+00  9.0
       -4    1    4    4    0  504 -2.33039950685E+01 -2.87193950375E+01  1.49734885440E+02  1.54236055378E+02  5.87386917370E-01  0.0000E+00  9.0
</event>
<event>
 8    1   5.1859766E+00   4.9600000E+02  -1.0000000E+00   9.3580000E-02
       11   -1    0    0    0    0  0.00000000000E+00  0.00000000000E+00  2.49527583690E+02  2.49527583690E+02  0.00000000000E+00  0.0000E+00  9.0
      -11   -1    0    0    0    0  0.00000000000E+00  0.00000000000E+00 -2.46463773190E+02  2.46463773190E+02  0.00000000000E+00  0.0000E+00  9.0
       24    2    1    2    0    0 -2.72148946388E+01 -4.95820560803E+01 -2.25895553147E+02  2.46300489691E+02  8.02253047045E+01  1.1361E-13  9.0
      -24    2    1    2    0    0  2.72148946388E+01  4.95820560803E+01  2.28959363647E+02  2.49690867184E+02  8.20006596204E+01  2.6858E-14  9.0
       -1    1    3    3    0  500 -1.90804391330E+01  1.64074211428E+01 -2.85607295505E+01  3.80654948545E+01  0.00000000000E+00  0.0000E+00  9.0
        2    1    3    3  500    0 -8.13445550587E+00 -6.59894772230E+01 -1.97334823597E+02  2.08234994836E+02  0.00000000000E+00  0.0000E+00  9.0
        1    1    4    4  504    0  4.05615940508E+01 -6.99779591408E+00  8.51636487670E+01  9.45888953890E+01  0.00000000000E+00  0.0000E+00  9.0
       -2    1    4    4    0  504 -1.33466994120E+01  5.65798519943E+01  1.43795714880E+02  1.55101971795E+02  0.00000000000E+00  0.0000E+00  9.0
</event>
<event>
 8    1   5.1859766E+00   2.1760000E+02  -1.0000000E+00   1.0370000E-01
       11   -1    0    0    0    0  0.00000000000E+00  0.00000000000E+00  2.49999999750E+02  2.49999999750E+02  0.00000000000E+00  0.0000E+00  9.0
      -11   -1    0    0    0    0  0.00000000000E+00  0.00000000000E+00 -4.73493077610E+01  4.73493077610E+01  0.00000000000E+00  0.0000E+00  9.0
       24    2    1    2    0    0 -3.24424228700E+01  1.52754608131E+01  1.41782331294E+01  9.04996258946E+01  8.18737411363E+01  3.3648E-14  9.0
      -24    2    1    2    0    0  3.24424228700E+01 -1.52754608131E+01  1.88472458859E+02  2.06849681616E+02  7.73244627000E+01  5.4107E-14  9.0
       -1    1    3    3    0  500 -3.58077289626E+01 -1.71198565386E+01  3.40944942967E+01  5.23232021451E+01  0.00000000000E+00  0.0000E+00  9.0
        2    1    3    3  500    0  3.36530609261E+00  3.23953173517E+01 -1.99162611673E+01  3.81764237495E+01  0.00000000000E+00  0.0000E+00  9.0
        3    1    4    4  504    0  4.57292851136E+01 -3.38623463594E+01  9.60183032121E+01  1.11612457054E+02  0.00000000000E+00  0.0000E+00  9.0
       -4    1    4    4    0  504 -1.32868622436E+01  1.85868855462E+01  9.24541556465E+01  9.52372245620E+01  5.87386917370E-01  0.0000E+00  9.0
</event>
<event>
 8    1   5.1859766E+00   4.9980000E+02  -1.0000000E+00   9.3500000E-02
       11   -1    0    0    0    0  0.00000000000E+00  0.00000000000E+00  2.49999999960E+02  2.49999999960E+02  0.00000000000E+00  0.0000E+00  9.0
      -11   -1    0    0    0    0  0.00000000000E+00  0.00000000000E+00 -2.49774218970E+02  2.49774218970E+02  0.00000000000E+00  0.0000E+00  9.0
       24    2    1    2    0    0 -1.40238317095E+00 -2.42295866613E+01 -2.33641354252E+02  2.51441415396E+02  8.96965072408E+01  1.6940E-13  9.0
      -24    2    1    2    0    0  1.40238317095E+00  2.42295866613E+01  2.33867135252E+02  2.48332803525E+02  7.99143592065E+01  1.4920E-14  9.0
       -3    1    3    3    0  500 -3.67966362194E+01 -1.81643936814E+01 -1.92517408007E+02  1.96842297336E+02  0.00000000000E+00  0.0000E+00  9.0
        4    1    3    3  500    0  3.53942530485E+01 -6.06519297990E+00 -4.11239462457E+01  5.45991180602E+01  5.87386917370E-01  0.0000E+00  9.0
        1    1    4    4  504    0  2.98669439915E+01  1.10135816133E+01  1.98554416787E+02  2.01090004100E+02  0.00000000000E+00  0.0000E+00  9.0
       -2    1    4    4    0  504 -2.84645608206E+01  1.32160050480E+01  3.53127184651E+01  4.72427994252E+01  0.00000000000E+00  0.0000E+00  9.0
</event>
<event>
 8    1   5.1859766E+00   4.9170000E+02  -1.0000000E+00   9.3680000E-02
       11   -1    0    0    0    0  0.00000000000E+00  0.00000000000E+00  2.41770145720E+02  2.41770145720E+02  0.00000000000E+00  0.0000E+00  9.0
      -11   -1    0    0    0    0  0.00000000000E+00  0.00000000000E+00 -2.49999997220E+02  2.49999997220E+02  0.00000000000E+00  0.0000E+00  9.0
       24    2    1    2    0    0  1.37988590215E+02 -8.85394369180E+01 -1.69133211405E+02  2.48725091869E+02  7.98626646557E+01  5.0702E-14  9.0
      -24    2    1    2    0    0 -1.37988590215E+02  8.85394369180E+01  1.60903359895E+02  2.43045051070E+02  7.93783516147E+01  6.2227E-15  9.0
       -3    1    3    3    0  500  5.54231363977E+01  2.93578388086E+00 -3.08343589800E+01  6.34909487160E+01  0.00000000000E+00  0.0000E+00  9.0
        4    1    3    3  500    0  8.25654538174E+01 -9.14752207989E+01 -1.38298852425E+02  1.85234143153E+02  5.87386917370E-01  0.0000E+00  9.0
        3    1    4    4  504    0 -9.43587601333E+01  1.43236074358E+01  7.45255026007E+01  1.21090015616E+02  0.00000000000E+00  0.0000E+00  9.0
       -4    1    4    4    0  504 -4.36298300817E+01  7.42158294822E+01  8.63778572941E+01  1.21955035455E+02  5.87386917370E-01  0.0000E+00  9.0
</event>
<event>
 8    1   5.1859766E+00   4.9160000E+02  -1.0000000E+00   9.3680000E-02
       11   -1    0    0    0    0  0.00000000000E+00  0.00000000000E+00  2.41695650690E+02  2.41695650690E+02  0.00000000000E+00  0.0000E+00  9.0
      -11   -1    0    0    0    0  0.00000000000E+00  0.00000000000E+00 -2.49999996680E+02  2.49999996680E+02  0.00000000000E+00  0.0000E+00  9.0
       24    2    1    2    0    0 -1.63092067726E+01 -5.81150680068E+01 -2.27023806375E+02  2.49566234727E+02  8.42623611104E+01  1.4687E-13  9.0
      -24    2    1    2    0    0  1.63092067726E+01  5.81150680068E+01  2.18719460385E+02  2.42129412644E+02  8.45286860250E+01  1.6807E-13  9.0
       -3    1    3    3    0  500 -2.87769933014E+01 -7.04014716974E+01 -1.27089722079E+02  1.48109013969E+02  0.00000000000E+00  0.0000E+00  9.0
        4    1    3    3  500    0  1.24677865287E+01  1.22864036906E+01 -9.99340842964E+01  1.01457220759E+02  5.87386917370E-01  0.0000E+00  9.0
        3    1    4    4  504    0 -2.72972677608E+01  1.76643258039E+01  2.99350986850E+01  4.41959202483E+01  0.00000000000E+00  0.0000E+00  9.0
       -4    1    4    4    0  504  4.36064745334E+01  4.04507422029E+01  1.88784361700E+02  1.97933492396E+02  5.87386917370E-01  0.0000E+00  9.0
</event>
<event>
 8    1   5.1859766E+00   4.9470000E+02  -1.0000000E+00   9.3610000E-02
       11   -1    0    0    0    0  0.00000000000E+00  0.00000000000E+00  2.48267981810E+02  2.48267981810E+02  0.00000000000E+00  0.0000E+00  9.0
      -11   -1    0    0    0    0  0.00000000000E+00  0.00000000000E+00 -2.46446372710E+02  2.46446372710E+02  0.00000000000E+00  0.0000E+00  9.0
       24    2    1    2    0    0  1.34733051863E+01 -3.27285951714E+01 -2.28957691192E+02  2.47104377244E+02  8.59433418183E+01  5.9974E-14  9.0
      -24    2    1    2    0    0 -1.34733051863E+01  3.27285951714E+01  2.30779300292E+02  2.47609977287E+02  8.24555911669E+01  1.1754E-13  9.0
       -1    1    3    3    0  500 -1.26548001347E+01 -5.32510566350E+01 -1.00704862744E+02  1.14618010712E+02  0.00000000000E+00  0.0000E+00  9.0
        2    1    3    3  500    0  2.61281053210E+01  2.05224614636E+01 -1.28252828448E+02  1.32486366532E+02  0.00000000000E+00  0.0000E+00  9.0
        3    1    4    4  504    0  2.08442309596E+01  4.68592312728E+01  1.54288059514E+02  1.62588667589E+02  0.00000000000E+00  0.0000E+00  9.0
       -4    1    4    4    0  504 -3.43175361459E+01 -1.41306361014E+01  7.64912407774E+01  8.50213096982E+01  5.87386917370E-01  0.0000E+00  9.0
</event>
<event>
 8    1   5.1859766E+00   4.8140000E+02  -1.0000000E+00   9.3910000E-02
       11   -1    0    0    0    0  0.00000000000E+00  0.00000000000E+00  2.33156467960E+02  2.33156467960E+02  0.00000000000E+00  0.0000E+00  9.0
      -11   -1    0    0    0    0  0.00000000000E+00  0.00000000000E+00 -2.48437978620E+02  2.48437978620E+02  0.00000000000E+00  0.0000E+00  9.0
       24    2    1    2    0    0 -3.88805403354E+01 -3.37752866798E+00 -2.31039530658E+02  2.47845431449E+02  8.07774043087E+01  9.9963E-14  9.0
      -24    2    1    2    0    0  3.88805403354E+01  3.37752866798E+00  2.15758019998E+02  2.33749015123E+02  8.10183606409E+01  4.2249E-14  9.0
      -13    1    3    3    0    0 -3.36629671848E+01 -4.00248394896E+01 -1.23662309894E+02  1.34266753877E+02  1.05700000000E-01  0.0000E+00  9.0
       14    1    3    3    0    0 -5.21757315062E+00  3.66473108216E+01 -1.07377220764E+02  1.13578677572E+02  0.00000000000E+00  0.0000E+00  9.0
        1    1    4    4  500    0 -2.14793617945E+01 -1.06796450984E+01  3.32085221358E+01  4.09661292408E+01  0.00000000000E+00  0.0000E+00  9.0
       -2    1    4    4    0  500  6.03599021299E+01  1.40571737664E+01  1.82549497862E+02  1.92782885883E+02  0.00000000000E+00  0.0000E+00  9.0
</event>
<event>
 8    1   5.1859766E+00   4.9290000E+02  -1.0000000E+00   9.3650000E-02
       11   -1    0    0    0    0  0.00000000000E+00  0.00000000000E+00  2.42986418960E+02  2.42986418960E+02  0.00000000000E+00  0.0000E+00  9.0
      -11   -1    0    0    0    0  0.00000000000E+00  0.00000000000E+00 -2.50000000000E+02  2.50000000000E+02  0.00000000000E+00  0.0000E+00  9.0
       24    2    1    2    0    0 -1.65520388889E+02 -6.75268958767E+01 -1.52781659717E+02  2.48052282471E+02  7.89355337518E+01  1.1852E-13  9.0
      -24    2    1    2    0    0  1.65520388889E+02  6.75268958767E+01  1.45768078677E+02  2.44934136495E+02  8.23863924127E+01  4.8232E-14  9.0
       -3    1    3    3    0  500 -6.02471618074E+01 -2.73807191511E+00 -1.34520858769E+01  6.17913922654E+01  0.00000000000E+00  0.0000E+00  9.0
        4    1    3    3  500    0 -1.05273227082E+02 -6.47888239616E+01 -1.39329573840E+02  1.86260890206E+02  5.87386917370E-01  0.0000E+00  9.0
        3    1    4    4  504    0  1.47388371927E+02  3.36747396584E+01  8.61301793323E+01  1.73999218568E+02  0.00000000000E+00  0.0000E+00  9.0
       -4    1    4    4    0  504  1.81320169618E+01  3.38521562183E+01  5.96378993444E+01  7.09349179272E+01  5.87386917370E-01  0.0000E+00  9.0
</event>
<event>
 8    1   5.1859766E+00   4.9920000E+02  -1.0000000E+00   9.3510000E-02
       11   -1    0    0    0    0  0.00000000000E+00  0.00000000000E+00  2.49773832200E+02  2.49773832200E+02  0.00000000000E+00  0.0000E+00  9.0
      -11   -1    0    0    0    0  0.00000000000E+00  0.00000000000E+00 -2.49414222210E+02  2.49414222210E+02  0.00000000000E+00  0.0000E+00  9.0
       24    2    1    2    0    0 -2.60882297750E+01  1.97527890576E+00 -2.34747852515E+02  2.49603728071E+02  8.06905778083E+01  2.3721E-14  9.0
      -24    2    1    2    0    0  2.60882297750E+01 -1.97527890576E+00  2.35107462495E+02  2.49584326332E+02  7.95758730411E+01  1.1998E-14  9.0
       -1    1    3    3    0  500  1.14745886819E+01 -3.16131150433E+01 -1.11219614149E+02  1.16193191710E+02  0.00000000000E+00  0.0000E+00  9.0
        2    1    3    3  500    0 -3.75628184569E+01  3.35883939491E+01 -1.23528238366E+02  1.33410536361E+02  0.00000000000E+00  0.0000E+00  9.0
       13    1    4    4    0    0  4.37037558370E+00  2.66997248160E+01  2.64059435570E+01  3.78055619667E+01  1.05700000000E-01  0.0000E+00  9.0
      -14    1    4    4    0    0  2.17178541913E+01 -2.86750037217E+01  2.08701518938E+02  2.11778764366E+02  0.00000000000E+00  0.0000E+00  9.0
</event>
<event>
 8    1   5.1859766E+00   4.8620000E+02  -1.0000000E+00   9.3800000E-02
       11   -1    0    0    0    0  0.00000000000E+00  0.00000000000E+00  2.48337222870E+02  2.48337222870E+02  0.00000000000E+00  0.0000E+00  9.0
      -11   -1    0    0    0    0  0.00000000000E+00  0.00000000000E+00 -2.37981144090E+02  2.37981144090E+02  0.00000000000E+00  0.0000E+00  9.0
       24    2    1    2    0    0 -3.72082275163E+00  4.86139016200E+01 -2.18303891713E+02  2.38739206270E+02  8.34425761857E+01  1.7287E-13  9.0
      -24    2    1    2    0    0  3.72082275163E+00 -4.86139016200E+01  2.28659970483E+02  2.47579160691E+02  8.14426347457E+01  1.9433E-13  9.0
      -13    1    3    3    0    0 -1.18454545417E+01  4.08209191785E+01 -3.49192730627E+01  5.50093541099E+01  1.05700000000E-01  0.0000E+00  9.0
       14    1    3    3    0    0  8.12463179005E+00  7.79298244152E+00 -1.83384618651E+02  1.83729852160E+02  0.00000000000E+00  0.0000E+00  9.0
        3    1    4    4  500    0  1.88268977851E+01  6.98771343988E+00  1.42623588471E+02  1.44030441948E+02  0.00000000000E+00  0.0000E+00  9.0
       -4    1    4    4    0  500 -1.51060750334E+01 -5.56016150599E+01  8.60363820123E+01  1.03548718743E+02  5.87386917370E-01  0.0000E+00  9.0
</event>
<event>
 8    1   5.1859766E+00   5.0000000E+02  -1.0000000E+00   9.3490000E-02
       11   -1    0    0    0    0  0.00000000000E+00  0.00000000000E+00  2.49999999970E+02  2.49999999970E+02  0.00000000000E+00  0.0000E+00  9.0
      -11   -1    0    0    0    0  0.00000000000E+00  0.00000000000E+00 -2.50000000000E+02  2.50000000000E+02  0.00000000000E+00  0.0000E+00  9.0
       24    2    1    2    0    0 -8.64008182671E+01 -1.83574044615E+01 -2.18949032003E+02  2.50660642833E+02  8.42020400857E+01  5.5675E-14  9.0
      -24    2    1    2    0    0  8.64008182671E+01  1.83574044615E+01  2.18949031973E+02  2.49339357139E+02  8.01831698083E+01  1.1649E-14  9.0
       -3    1    3    3    0  500 -9.63970797318E+01 -1.10153427953E+01 -2.17500039298E+02  2.38159614234E+02  0.00000000000E+00  0.0000E+00  9.0
        4    1    3    3  500    0  9.99626146469E+00 -7.34206166614E+00 -1.44899270559E+00  1.25010285989E+01  5.87386917370E-01  0.0000E+00  9.0
        1    1    4    4  504    0  1.30715950073E+01 -7.41786914084E+00 -1.95813295456E+00  1.51567035761E+01  0.00000000000E+00  0.0000E+00  9.0
       -2    1    4    4    0  504  7.33292232598E+01  2.57752736023E+01  2.20907164928E+02  2.34182653563E+02  0.00000000000E+00  0.0000E+00  9.0
</event>
<event>
 8    1   5.1859766E+00   4.2020000E+02  -1.0000000E+00   9.5460000E-02
       11   -1    0    0    0    0  0.00000000000E+00  0.00000000000E+00  1.76538264100E+02  1.76538264100E+02  0.00000000000E+00  0.0000E+00  9.0
      -11   -1    0    0    0    0  0.00000000000E+00  0.00000000000E+00 -2.49999961910E+02  2.49999961910E+02  0.00000000000E+00  0.0000E+00  9.0
       24    2    1    2    0    0  1.49928549507E+02  4.09740181629E+01 -1.53875802116E+02  2.33636162360E+02  8.21623622076E+01  1.6570E-13  9.0
      -24    2    1    2    0    0 -1.49928549507E+02 -4.09740181629E+01  8.04141043125E+01  1.92902063652E+02  8.11624165915E+01  1.5919E-13  9.0
       -3    1    3    3    0  500  8.43507788770E+01 -1.91965620086E+01 -6.90527077160E+01  1.10688022536E+02  0.00000000000E+00  0.0000E+00  9.0
        4    1    3    3  500    0  6.55777706304E+01  6.01705801715E+01 -8.48230944004E+01  1.22948139824E+02  5.87386917370E-01  0.0000E+00  9.0
        1    1    4    4  504    0 -6.42869139444E+01  1.87963694468E+01  1.19803080921E+01  6.80414475952E+01  0.00000000000E+00  0.0000E+00  9.0
       -2    1    4    4    0  504 -8.56416355630E+01 -5.97703876097E+01  6.84337962203E+01  1.24860616057E+02  0.00000000000E+00  0.0000E+00  9.0
</event>
<event>
 8    1   5.1859766E+00   4.6870000E+02  -1.0000000E+00   9.4210000E-02
       11   -1    0    0    0    0  0.00000000000E+00  0.00000000000E+00  2.37401651370E+02  2.37401651370E+02  0.00000000000E+00  0.0000E+00  9.0
      -11   -1    0    0    0    0  0.00000000000E+00  0.00000000000E+00 -2.31383628350E+02  2.31383628350E+02  0.00000000000E+00  0.0000E+00  9.0
       24    2    1    2    0    0  1.90026920472E+01 -1.35344037678E+01 -2.15857696705E+02  2.31409414038E+02  8.00717758535E+01  2.6191E-14  9.0
      -24    2    1    2    0    0 -1.90026920472E+01  1.35344037678E+01  2.21875719725E+02  2.37375865686E+02  8.10813432084E+01  5.7384E-14  9.0
      -13    1    3    3    0    0  3.44339516190E+01 -3.83100701570E+01 -1.07732730464E+02  1.19414031359E+02  1.05700000000E-01  0.0000E+00  9.0
       14    1    3    3    0    0 -1.54312595718E+01  2.47756663892E+01 -1.08124966240E+02  1.11995382679E+02  0.00000000000E+00  0.0000E+00  9.0
        3    1    4    4  500    0 -4.26139512556E+01  1.69755265024E+01  1.99341316045E+02  2.04550916948E+02  0.00000000000E+00  0.0000E+00  9.0
       -4    1    4    4    0  500  2.36112592084E+01 -3.44112273459E+00  2.25344036797E+01  3.28249487383E+01  5.87386917370E-01  0.0000E+00  9.0
</event>
<event>
 8    1   5.1859766E+00   4.7980000E+02  -1.0000000E+00   9.3950000E-02
       11   -1    0    0    0    0  0.00000000000E+00  0.00000000000E+00  2.49999999320E+02  2.49999999320E+02  0.00000000000E+00  0.0000E+00  9.0
      -11   -1    0    0    0    0  0.00000000000E+00  0.00000000000E+00 -2.30231918350E+02  2.30231918350E+02  0.00000000000E+00  0.0000E+00  9.0
       24    2    1    2    0    0  1.05663156538E+02  8.22440575200E+01 -1.72082249126E+02  2.32461309544E+02  8.06050390721E+01  7.1634E-14  9.0
      -24    2    1    2    0    0 -1.05663156538E+02 -8.22440575200E+01  1.91850330096E+02  2.47770608130E+02  8.15777999736E+01  8.3579E-14  9.0
      -13    1    3    3    0    0  9.25541983261E+01  6.73766229991E+01 -8.35229594869E+01  1.41710920146E+02  1.05700000000E-01  0.0000E+00  9.0
       14    1    3    3    0    0  1.31089582118E+01  1.48674345209E+01 -8.85592896389E+01  9.07503893985E+01  0.00000000000E+00  0.0000E+00  9.0
        1    1    4    4  500    0  4.84149779521E+00 -3.51892293844E+01  3.18665872975E+01  4.77200309258E+01  0.00000000000E+00  0.0000E+00  9.0
       -2    1    4    4    0  500 -1.10504654333E+02 -4.70548281356E+01  1.59983742798E+02  2.00050577205E+02  0.00000000000E+00  0.0000E+00  9.0
</event>
<event>
 8    1   5.1859766E+00   3.6410000E+02  -1.0000000E+00   9.7140000E-02
       11   -1    0    0    0    0  0.00000000000E+00  0.00000000000E+00  2.50000000000E+02  2.50000000000E+02  0.00000000000E+00  0.0000E+00  9.0
      -11   -1    0    0    0    0  0.00000000000E+00  0.00000000000E+00 -1.32554529120E+02  1.32554529120E+02  0.00000000000E+00  0.0000E+00  9.0
       24    2    1    2    0    0  4.64556358877E+01 -6.68197735463E+01 -8.90643090881E+01  1.46652823730E+02  8.33762035124E+01  1.5620E-13  9.0
      -24    2    1    2    0    0 -4.64556358877E+01  6.68197735463E+01  2.06509779970E+02  2.35901705394E+02  7.98768874094E+01  3.2245E-13  9.0
      -13    1    3    3    0    0  2.72515997060E+01 -5.01521212896E+01 -3.27232604120E+00  5.71717084456E+01  1.05700000000E-01  0.0000E+00  9.0
       14    1    3    3    0    0  1.92040361816E+01 -1.66676522567E+01 -8.57919830469E+01  8.94811152844E+01  0.00000000000E+00  0.0000E+00  9.0
        3    1    4    4  500    0 -1.06149626490E+01 -7.12393411914E+00  1.02756739882E+02  1.03548903715E+02  0.00000000000E+00  0.0000E+00  9.0
       -4    1    4    4    0  500 -3.58406732387E+01  7.39437076654E+01  1.03753040088E+02  1.32352801679E+02  5.87386917370E-01  0.0000E+00  9.0
</event>
<event>
 8    1   5.1859766E+00   4.9880000E+02  -1.0000000E+00   9.3520000E-02
       11   -1    0    0    0    0  0.00000000000E+00  0.00000000000E+00  2.48835716140E+02  2.48835716140E+02  0.00000000000E+00  0.0000E+00  9.0
      -11   -1    0    0    0    0  0.00000000000E+00  0.00000000000E+00 -2.49999678630E+02  2.49999678630E+02  0.00000000000E+00  0.0000E+00  9.0
       24    2    1    2    0    0 -1.59188465659E+00 -2.43250103578E+01 -2.36655948732E+02  2.50961693778E+02  7.98842503137E+01  4.5380E-14  9.0
      -24    2    1    2    0    0  1.59188465659E+00  2.43250103578E+01  2.35491986242E+02  2.47873700994E+02  7.34210857619E+01  8.6236E-14  9.0
       -3    1    3    3    0  500  3.39273860130E+01 -1.93079290559E+01 -1.77784995952E+02  1.82020241818E+02  0.00000000000E+00  0.0000E+00  9.0
        4    1    3    3  500    0 -3.55192706695E+01 -5.01708130195E+00 -5.88709527802E+01  6.89414519598E+01  5.87386917370E-01  0.0000E+00  9.0
       13    1    4    4    0    0 -1.96700650135E+01  4.28627390689E+00  1.41392084461E+01  2.46010566768E+01  1.05700000000E-01  0.0000E+00  9.0
      -14    1    4    4    0    0  2.12619496701E+01  2.00387364509E+01  2.21352777796E+02  2.23272644317E+02  0.00000000000E+00  0.0000E+00  9.0
</event>
<event>
 8    1   5.1859766E+00   4.7840000E+02  -1.0000000E+00   9.3980000E-02
       11   -1    0    0    0    0  0.00000000000E+00  0.00000000000E+00  2.49539925170E+02  2.49539925170E+02  0.00000000000E+00  0.0000E+00  9.0
      -11   -1    0    0    0    0  0.00000000000E+00  0.00000000000E+00 -2.29299792400E+02  2.29299792400E+02  0.00000000000E+00  0.0000E+00  9.0
       24    2    1    2    0    0 -5.08774035323E+01  7.15583179935E+01 -1.97113712014E+02  2.30737283541E+02  8.17115382797E+01  4.1350E-13  9.0
      -24    2    1    2    0    0  5.08774035323E+01 -7.15583179935E+01  2.17353844784E+02  2.48102434037E+02  8.12589740806E+01  1.1288E-13  9.0
       -1    1    3    3    0  500 -5.66119746096E+01  1.04962481344E+01 -8.03929528461E+01  9.88843453809E+01  0.00000000000E+00  0.0000E+00  9.0
        2    1    3    3  500    0  5.73457107731E+00  6.10620698591E+01 -1.16720759168E+02  1.31852938160E+02  0.00000000000E+00  0.0000E+00  9.0
        3    1    4    4  504    0 -2.02728405454E+01 -3.15509003931E+01  5.82116748832E+01  6.92462740666E+01  0.00000000000E+00  0.0000E+00  9.0
       -4    1    4    4    0  504  7.11502440777E+01 -4.00074176003E+01  1.59142169900E+02  1.78856159970E+02  5.87386917370E-01  0.0000E+00  9.0
</event>
<event>
 8    1   5.1859766E+00   5.0000000E+02  -1.0000000E+00   9.3490000E-02
       11   -1    0    0    0    0  0.00000000000E+00  0.00000000000E+00  2.49999999770E+02  2.49999999770E+02  0.00000000000E+00  0.0000E+00  9.0
      -11   -1    0    0    0    0  0.00000000000E+00  0.00000000000E+00 -2.49999991390E+02  2.49999991390E+02  0.00000000000E+00  0.0000E+00  9.0
       24    2    1    2    0    0  1.17369805986E+02  1.56692320256E+00 -2.05643776932E+02  2.49942148635E+02  8.00224222800E+01  5.3367E-14  9.0
      -24    2    1    2    0    0 -1.17369805986E+02 -1.56692320256E+00  2.05643785312E+02  2.50057842523E+02  8.03830303253E+01  1.4154E-13  9.0
       -1    1    3    3    0  500  1.01192418071E+02  1.13793228900E+01 -2.07288616659E+02  2.30950135442E+02  0.00000000000E+00  0.0000E+00  9.0
        2    1    3    3  500    0  1.61773879153E+01 -9.81239968743E+00  1.64483972613E+00  1.89920131928E+01  0.00000000000E+00  0.0000E+00  9.0
       13    1    4    4    0    0 -6.49198302004E+01  1.42707972759E+01  4.48499053969E+01  8.01858166682E+01  1.05700000000E-01  0.0000E+00  9.0
      -14    1    4    4    0    0 -5.24499757859E+01 -1.58377204785E+01  1.60793879915E+02  1.69872025855E+02  0.00000000000E+00  0.0000E+00  9.0
</event>
<event>
 8    1   5.1859766E+00   4.9950000E+02  -1.0000000E+00   9.3500000E-02
       11   -1    0    0    0    0  0.00000000000E+00  0.00000000000E+00  2.49994338210E+02  2.49994338210E+02  0.00000000000E+00  0.0000E+00  9.0
      -11   -1    0    0    0    0  0.00000000000E+00  0.00000000000E+00 -2.49473927690E+02  2.49473927690E+02  0.00000000000E+00  0.0000E+00  9.0
       24    2    1    2    0    0 -6.56080525682E+01 -3.79791420084E+01 -2.22984078592E+02  2.49446805302E+02  8.21886706334E+01  2.4096E-13  9.0
      -24    2    1    2    0    0  6.56080525682E+01  3.79791420084E+01  2.23504489112E+02  2.50021460598E+02  8.25205569348E+01  1.2734E-13  9.0
       -1    1    3    3    0  500 -5.25472106034E+01 -4.02398008374E+01 -2.26302859193E+02  2.35782601123E+02  0.00000000000E+00  0.0000E+00  9.0
        2    1    3    3  500    0 -1.30608419648E+01  2.26065882904E+00  3.31878060069E+00  1.36642041790E+01  0.00000000000E+00  0.0000E+00  9.0
       13    1    4    4    0    0  4.18586273134E+00 -2.38408910529E+01  6.09525062860E+01  6.55829911489E+01  1.05700000000E-01  0.0000E+00  9.0
      -14    1    4    4    0    0  6.14221898368E+01  6.18200330612E+01  1.62551982826E+02  1.84438469449E+02  0.00000000000E+00  0.0000E+00  9.0
</event>
<event>
 8    1   5.1859766E+00   4.3100000E+02  -1.0000000E+00   9.5160000E-02
       11   -1    0    0    0    0  0.00000000000E+00  0.00000000000E+00  2.26263853780E+02  2.26263853780E+02  0.00000000000E+00  0.0000E+00  9.0
      -11   -1    0    0    0    0  0.00000000000E+00  0.00000000000E+00 -2.05232455180E+02  2.05232455180E+02  0.00000000000E+00  0.0000E+00  9.0
       24    2    1    2    0    0  2.00627955075E+01 -2.47594750014E+01 -1.87080830094E+02  2.05725825744E+02  7.94250025072E+01  2.5002E-13  9.0
      -24    2    1    2    0    0 -2.00627955075E+01  2.47594750014E+01  2.08112228694E+02  2.25770483209E+02  8.15233953566E+01  6.7986E-14  9.0
       -3    1    3    3    0  500  1.13363593499E+01 -2.69564536341E+01 -1.40201594917E+01  3.24303608985E+01  0.00000000000E+00  0.0000E+00  9.0
        4    1    3    3  500    0  8.72643615760E+00  2.19697863263E+00 -1.73060670602E+02  1.73295464845E+02  5.87386917370E-01  0.0000E+00  9.0
        3    1    4    4  504    0 -3.83067156962E+01  2.31773647061E+01  2.01306701149E+02  2.06225562503E+02  0.00000000000E+00  0.0000E+00  9.0
       -4    1    4    4    0  504  1.82439201887E+01  1.58211029530E+00  6.80552754475E+00  1.95449207057E+01  5.87386917370E-01  0.0000E+00  9.0
</event>
<event>
 8    1   5.1859766E+00   4.7090000E+02  -1.0000000E+00   9.4160000E-02
       11   -1    0    0    0    0  0.00000000000E+00  0.00000000000E+00  2.21703331460E+02  2.21703331460E+02  0.00000000000E+00  0.0000E+00  9.0
      -11   -1    0    0    0    0  0.00000000000E+00  0.00000000000E+00 -2.50000000000E+02  2.50000000000E+02  0.00000000000E+00  0.0000E+00  9.0
       24    2    1    2    0    0  3.19592359604E+01  2.39381631990E+01 -2.32113356347E+02  2.48679546595E+02  7.98152759772E+01  1.1789E-13  9.0
      -24    2    1    2    0    0 -3.19592359604E+01 -2.39381631990E+01  2.03816687807E+02  2.23023784855E+02  8.12646169125E+01  7.4979E-14  9.0
       -3    1    3    3    0  500 -2.90370442373E+00 -1.82897304492E+01 -1.25033218998E+01  2.23445473844E+01  0.00000000000E+00  0.0000E+00  9.0
        4    1    3    3  500    0  3.48629403841E+01  4.22278936482E+01 -2.19610034448E+02  2.26334999210E+02  5.87386917370E-01  0.0000E+00  9.0
        1    1    4    4  504    0 -1.89073734858E+01  2.87032119217E+01  5.76374021909E+01  6.71076245897E+01  0.00000000000E+00  0.0000E+00  9.0
       -2    1    4    4    0  504 -1.30518624746E+01 -5.26413751207E+01  1.46179285616E+02  1.55916160266E+02  0.00000000000E+00  0.0000E+00  9.0
</event>
<event>
 8    1   5.1859766E+00   4.6820000E+02  -1.0000000E+00   9.4220000E-02
       11   -1    0    0    0    0  0.00000000000E+00  0.00000000000E+00  2.27107311060E+02  2.27107311060E+02  0.00000000000E+00  0.0000E+00  9.0
      -11   -1    0    0    0    0  0.00000000000E+00  0.00000000000E+00 -2.41344591370E+02  2.41344591370E+02  0.00000000000E+00  0.0000E+00  9.0
       24    2    1    2    0    0 -1.00816380254E+02  2.54117451800E+00 -2.02400925687E+02  2.39795620123E+02  7.97834858589E+01  4.7482E-13  9.0
      -24    2    1    2    0    0  1.00816380254E+02 -2.54117451800E+00  1.88163645377E+02  2.28656282300E+02  8.19007808164E+01  6.3966E-14  9.0
       -1    1    3    3    0  500 -6.73510520553E+00  1.39805744522E+01 -9.62482085403E+01  9.74912085850E+01  0.00000000000E+00  0.0000E+00  9.0
        2    1    3    3  500    0 -9.40812750482E+01 -1.14393999342E+01 -1.06152717147E+02  1.42304411538E+02  0.00000000000E+00  0.0000E+00  9.0
        3    1    4    4  504    0 -8.59554238579E+00 -6.62026319730E+00 -1.22175447310E-01  1.08501686875E+01  0.00000000000E+00  0.0000E+00  9.0
       -4    1    4    4    0  504  1.09411922640E+02  4.07908867930E+00  1.88285820825E+02  2.17806113613E+02  5.87386917370E-01  0.0000E+00  9.0
</event>
<event>
 8    1   5.1859766E+00   4.4190000E+02  -1.0000000E+00   9.4880000E-02
       11   -1    0    0    0    0  0.00000000000E+00  0.00000000000E+00  2.08676260890E+02  2.08676260890E+02  0.00000000000E+00  0.0000E+00  9.0
      -11   -1    0    0    0    0  0.00000000000E+00  0.00000000000E+00 -2.33949527470E+02  2.33949527470E+02  0.00000000000E+00  0.0000E+00  9.0
       24    2    1    2    0    0  4.38635276136E+01  5.11008072853E+01 -2.07876038031E+02  2.31784249223E+02  7.73058176367E+01  4.3556E-14  9.0
      -24    2    1    2    0    0 -4.38635276136E+01 -5.11008072853E+01  1.82602771441E+02  2.10841539133E+02  8.10868727110E+01  9.6377E-14  9.0
       -3    1    3    3    0  500 -1.77989396624E+01 -3.26491027200E+00 -2.16274273755E+01  2.81994238784E+01  0.00000000000E+00  0.0000E+00  9.0
        4    1    3    3  500    0  6.16624672761E+01  5.43657175573E+01 -1.86248610655E+02  2.03584825344E+02  5.87386917370E-01  0.0000E+00  9.0
        3    1    4    4  504    0 -2.80707877345E+01 -4.97690597818E+01  1.86037074454E+02  1.94614289061E+02  0.00000000000E+00  0.0000E+00  9.0
       -4    1    4    4    0  504 -1.57927398791E+01 -1.33174750348E+00 -3.43430301281E+00  1.62272500713E+01  5.87386917370E-01  0.0000E+00  9.0
</event>
<event>
 8    1   5.1859766E+00   5.0000000E+02  -1.0000000E+00   9.3490000E-02
       11   -1    0    0    0    0  0.00000000000E+00  0.00000000000E+00  2.49951957340E+02  2.49951957340E+02  0.00000000000E+00  0.0000E+00  9.0
      -11   -1    0    0    0    0  0.00000000000E+00  0.00000000000E+00 -2.50000000000E+02  2.50000000000E+02  0.00000000000E+00  0.0000E+00  9.0
       24    2    1    2    0    0  1.72262216652E+02 -1.49870704678E+02 -6.06724840074E+01  2.48398705539E+02  7.67154951196E+01  4.6196E-14  9.0
      -24    2    1    2    0    0 -1.72262216652E+02  1.49870704678E+02  6.06244413484E+01  2.51553251813E+02  8.64188417081E+01  9.5733E-14  9.0
       -3    1    3    3    0  500  1.18158748751E+02 -1.42047766035E+02 -3.52182069602E+01  1.88094071793E+02  0.00000000000E+00  0.0000E+00  9.0
        4    1    3    3  500    0  5.41034679009E+01 -7.82293864235E+00 -2.54542770472E+01  6.03046337465E+01  5.87386917370E-01  0.0000E+00  9.0
       13    1    4    4    0    0 -1.50750055009E+02  1.25550564133E+02  1.66493173762E+01  1.96890157653E+02  1.05700000000E-01  0.0000E+00  9.0
      -14    1    4    4    0    0 -2.15121616436E+01  2.43201405449E+01  4.39751239721E+01  5.46630941593E+01  0.00000000000E+00  0.0000E+00  9.0
</event>
<event>
 8    1   5.1859766E+00   3.9650000E+02  -1.0000000E+00   9.6130000E-02
       11   -1    0    0    0    0  0.00000000000E+00  0.00000000000E+00  1.84840144130E+02  1.84840144130E+02  0.00000000000E+00  0.0000E+00  9.0
      -11   -1    0    0    0    0  0.00000000000E+00  0.00000000000E+00 -2.12661036110E+02  2.12661036110E+02  0.00000000000E+00  0.0000E+00  9.0
       24    2    1    2    0    0 -1.67902597267E+02  4.23691085448E+00 -8.15052848913E+01  2.03769417498E+02  8.16678055259E+01  4.7811E-14  9.0
      -24    2    1    2    0    0  1.67902597267E+02 -4.23691085448E+00  5.36843929173E+01  1.93731762752E+02  8.02542726168E+01  1.2757E-13  9.0
       -1    1    3    3    0  500 -1.45655695452E+02 -1.71980797538E+01 -3.99911094791E+01  1.52021855015E+02  0.00000000000E+00  0.0000E+00  9.0
        2    1    3    3  500    0 -2.22469018156E+01  2.14349906083E+01 -4.15141754122E+01  5.17475624829E+01  0.00000000000E+00  0.0000E+00  9.0
       13    1    4    4    0    0  7.64106290079E+01 -3.66042933411E+01  4.59285515558E+01  9.63737595868E+01  1.05700000000E-01  0.0000E+00  9.0
      -14    1    4    4    0    0  9.14919682593E+01  3.23673824867E+01  7.75584136142E+00  9.73580031647E+01  0.00000000000E+00  0.0000E+00  9.0
</event>
<event>
 8    1   5.1859766E+00   4.8780000E+02  -1.0000000E+00   9.3770000E-02
       11   -1    0    0    0    0  0.00000000000E+00  0.00000000000E+00  2.40142003020E+02  2.40142003020E+02  0.00000000000E+00  0.0000E+00  9.0
      -11   -1    0    0    0    0  0.00000000000E+00  0.00000000000E+00 -2.47701244990E+02  2.47701244990E+02  0.00000000000E+00  0.0000E+00  9.0
       24    2    1    2    0    0 -4.16323486693E+01  4.45935553899E+00 -2.31387411694E+02  2.47353892088E+02  7.67507350642E+01  2.4391E-13  9.0
      -24    2    1    2    0    0  4.16323486693E+01 -4.45935553899E+00  2.23828169724E+02  2.40489355926E+02  7.73494825060E+01  2.2168E-13  9.0
      -13    1    3    3    0    0 -9.97157930715E+00 -3.32870663364E+00 -2.05375622384E+02  2.05644523690E+02  1.05700000000E-01  0.0000E+00  9.0
       14    1    3    3    0    0 -3.16607693621E+01  7.78806217263E+00 -2.60117893106E+01  4.17093683978E+01  0.00000000000E+00  0.0000E+00  9.0
        3    1    4    4  500    0  2.71195973916E+00  3.31555315547E+01  7.23865405543E+01  7.96646424189E+01  0.00000000000E+00  0.0000E+00  9.0
       -4    1    4    4    0  500  3.89203889301E+01 -3.76148870937E+01  1.51441629170E+02  1.60824713507E+02  5.87386917370E-01  0.0000E+00  9.0
</event>
<event>
 8    1   5.1859766E+00   4.9930000E+02  -1.0000000E+00   9.3510000E-02
       11   -1    0    0    0    0  0.00000000000E+00  0.00000000000E+00  2.49999999950E+02  2.49999999950E+02  0.00000000000E+00  0.0000E+00  9.0
      -11   -1    0    0    0    0  0.00000000000E+00  0.00000000000E+00 -2.49296627930E+02  2.49296627930E+02  0.00000000000E+00  0.0000E+00  9.0
       24    2    1    2    0    0  8.01082131066E+01  3.02614434509E+01 -2.19779808278E+02  2.49206368074E+02  8.04211974246E+01  2.2117E-13  9.0
      -24    2    1    2    0    0 -8.01082131066E+01 -3.02614434509E+01  2.20483180298E+02  2.50090259812E+02  8.12356109833E+01  8.8662E-15  9.0
       -1    1    3    3    0  500  3.36450302358E+01 -2.73742585605E+01 -8.53815628677E+01  9.57671622689E+01  0.00000000000E+00  0.0000E+00  9.0
        2    1    3    3  500    0  4.64631828708E+01  5.76357020114E+01 -1.34398245410E+02  1.53439205805E+02  0.00000000000E+00  0.0000E+00  9.0
        3    1    4    4  504    0 -5.09807424025E+01 -2.38284412625E+01  2.11608049239E+02  2.18963004208E+02  0.00000000000E+00  0.0000E+00  9.0
       -4    1    4    4    0  504 -2.91274707041E+01 -6.43300218843E+00  8.87513105898E+00  3.11272556047E+01  5.87386917370E-01  0.0000E+00  9.0
</event>
<event>
 8    1   5.1859766E+00   4.9320000E+02  -1.0000000E+00   9.3640000E-02
       11   -1    0    0    0    0  0.00000000000E+00  0.00000000000E+00  2.43258458610E+02  2.43258458610E+02  0.00000000000E+00  0.0000E+00  9.0
      -11   -1    0    0    0    0  0.00000000000E+00  0.00000000000E+00 -2.50000000000E+02  2.50000000000E+02  0.00000000000E+00  0.0000E+00  9.0
       24    2    1    2    0    0 -4.06128479728E+01  2.05848348405E+02  8.63793812137E+01  2.42502220219E+02  8.55744316428E+01  7.9068E-14  9.0
      -24    2    1    2    0    0  4.06128479728E+01 -2.05848348405E+02 -9.31209226047E+01  2.50756238387E+02  1.00916990155E+02  2.2074E-13  9.0
       -1    1    3    3    0  500 -2.16724428999E+01  6.74039280530E+01  7.36919616265E+01  1.02193392676E+02  0.00000000000E+00  0.0000E+00  9.0
        2    1    3    3  500    0 -1.89404050729E+01  1.38444420351E+02  1.26874195872E+01  1.40308827543E+02  0.00000000000E+00  0.0000E+00  9.0
        3    1    4    4  504    0  2.40151695640E+01 -6.68659090090E+00 -3.43471792353E+01  4.24401648028E+01  0.00000000000E+00  0.0000E+00  9.0
       -4    1    4    4    0  504  1.65976784089E+01 -1.99161757504E+02 -5.87737433694E+01  2.08316073584E+02  5.87386917370E-01  0.0000E+00  9.0
</event>
<event>
 8    1   5.1859766E+00   5.0000000E+02  -1.0000000E+00   9.3490000E-02
       11   -1    0    0    0    0  0.00000000000E+00  0.00000000000E+00  2.49999999420E+02  2.49999999420E+02  0.00000000000E+00  0.0000E+00  9.0
      -11   -1    0    0    0    0  0.00000000000E+00  0.00000000000E+00 -2.50000000000E+02  2.50000000000E+02  0.00000000000E+00  0.0000E+00  9.0
       24    2    1    2    0    0 -2.12703263419E+02 -1.03789380666E+02 -8.03809725120E-01  2.50048347619E+02  8.06759953688E+01  4.5443E-13  9.0
      -24    2    1    2    0    0  2.12703263419E+02  1.03789380666E+02  8.03809145350E-01  2.49951651802E+02  8.03757943731E+01  7.0221E-14  9.0
       -3    1    3    3    0  500 -1.30801319262E+02 -1.05373639668E+02 -4.76044105149E+00  1.68033481356E+02  0.00000000000E+00  0.0000E+00  9.0
        4    1    3    3  500    0 -8.19019441572E+01  1.58425900196E+00  3.95663132637E+00  8.20148662631E+01  5.87386917370E-01  0.0000E+00  9.0
        3    1    4    4  504    0  2.08794147441E+02  8.14712018158E+01 -1.10013588803E+01  2.24396039689E+02  0.00000000000E+00  0.0000E+00  9.0
       -4    1    4    4    0  504  3.90911597762E+00  2.23181788507E+01  1.18051680257E+01  2.55556121124E+01  5.87386917370E-01  0.0000E+00  9.0
</event>
<event>
 8    1   5.1859766E+00   4.9830000E+02  -1.0000000E+00   9.3530000E-02
       11   -1    0    0    0    0  0.00000000000E+00  0.00000000000E+00  2.48394568480E+02  2.48394568480E+02  0.00000000000E+00  0.0000E+00  9.0
      -11   -1    0    0    0    0  0.00000000000E+00  0.00000000000E+00 -2.49897150560E+02  2.49897150560E+02  0.00000000000E+00  0.0000E+00  9.0
       24    2    1    2    0    0  5.08283385001E+01  7.30002147314E+00 -2.31515361372E+02  2.49409495283E+02  7.72588084151E+01  2.9403E-13  9.0
      -24    2    1    2    0    0 -5.08283385001E+01 -7.30002147314E+00  2.30012779302E+02  2.48882223755E+02  7.99979521670E+01  1.4171E-13  9.0
       -3    1    3    3    0  500  3.65550124509E+01  3.78856947773E+01 -9.32692492970E+01  1.07101576405E+02  0.00000000000E+00  0.0000E+00  9.0
        4    1    3    3  500    0  1.42733260493E+01 -3.05856733042E+01 -1.38246112075E+02  1.42307918878E+02  5.87386917370E-01  0.0000E+00  9.0
        3    1    4    4  504    0 -6.55800930942E+01 -5.68955293175E+00  1.11795029081E+02  1.29735300323E+02  0.00000000000E+00  0.0000E+00  9.0
       -4    1    4    4    0  504  1.47517545941E+01 -1.61046854139E+00  1.18217750221E+02  1.19146923432E+02  5.87386917370E-01  0.0000E+00  9.0
</event>
<event>
 8    1   5.1859766E+00   4.9420000E+02  -1.0000000E+00   9.3620000E-02
       11   -1    0    0    0    0  0.00000000000E+00  0.00000000000E+00  2.49999567040E+02  2.49999567040E+02  0.00000000000E+00  0.0000E+00  9.0
      -11   -1    0    0    0    0  0.00000000000E+00  0.00000000000E+00 -2.44267868370E+02  2.44267868370E+02  0.00000000000E+00  0.0000E+00  9.0
       24    2    1    2    0    0 -1.27568868731E+01 -9.09325021046E+00 -2.30416282281E+02  2.44572864664E+02  8.04909785492E+01  1.4155E-13  9.0
      -24    2    1    2    0    0  1.27568868731E+01  9.09325021046E+00  2.36147980941E+02  2.49694570745E+02  7.95995250931E+01  1.9224E-13  9.0
      -13    1    3    3    0    0  9.76418870136E-01 -4.39952297477E+01 -1.37571087104E+02  1.44438044898E+02  1.05700000000E-01  0.0000E+00  9.0
       14    1    3    3    0    0 -1.37333057432E+01  3.49019795372E+01 -9.28451951768E+01  1.00134819767E+02  0.00000000000E+00  0.0000E+00  9.0
        3    1    4    4  500    0  1.69093417214E+01  2.69922142734E+01  2.26883579887E+02  2.29108411655E+02  0.00000000000E+00  0.0000E+00  9.0
       -4    1    4    4    0  500 -4.15245484831E+00 -1.78989640629E+01  9.26440105368E+00  2.05861590897E+01  5.87386917370E-01  0.0000E+00  9.0
</event>
<event>
 8    1   5.1859766E+00   5.0000000E+02  -1.0000000E+00   9.3490000E-02
       11   -1    0    0    0    0  0.00000000000E+00  0.00000000000E+00  2.49999978860E+02  2.49999978860E+02  0.00000000000E+00  0.0000E+00  9.0
      -11   -1    0    0    0    0  0.00000000000E+00  0.00000000000E+00 -2.49999957520E+02  2.49999957520E+02  0.00000000000E+00  0.0000E+00  9.0
       24    2    1    2    0    0  1.53996088678E+01 -1.12776166265E+02 -2.01094101394E+02  2.44788122345E+02  8.07884620183E+01  5.0601E-14  9.0
      -24    2    1    2    0    0 -1.53996088678E+01  1.12776166265E+02  2.01094122734E+02  2.55211814036E+02  1.08344876182E+02  1.8176E-13  9.0
       -3    1    3    3    0  500 -9.54379158997E+00 -4.30652089747E+01 -1.86471122724E+01  4.78895706606E+01  0.00000000000E+00  0.0000E+00  9.0
        4    1    3    3  500    0  2.49434004578E+01 -6.97109572898E+01 -1.82446989121E+02  1.96898551685E+02  5.87386917370E-01  0.0000E+00  9.0
        1    1    4    4  504    0  1.15586301626E+01  5.70211501331E+01  1.80972121973E+02  1.90094509193E+02  0.00000000000E+00  0.0000E+00  9.0
       -2    1    4    4    0  504 -2.69582390304E+01  5.57550161314E+01  2.01220007607E+01  6.51173048432E+01  0.00000000000E+00  0.0000E+00  9.0
</event>
<event>
 8    1   5.1859766E+00   4.9770000E+02  -1.0000000E+00   9.3540000E-02
       11   -1    0    0    0    0  0.00000000000E+00  0.00000000000E+00  2.50000000000E+02  2.50000000000E+02  0.00000000000E+00  0.0000E+00  9.0
      -11   -1    0    0    0    0  0.00000000000E+00  0.00000000000E+00 -2.47681313050E+02  2.47681313050E+02  0.00000000000E+00  0.0000E+00  9.0
       24    2    1    2    0    0  1.28490677312E+02 -7.24845038038E+00 -1.96232692580E+02  2.48082712290E+02  8.04696732367E+01  1.8744E-13  9.0
      -24    2    1    2    0    0 -1.28490677312E+02  7.24845038038E+00  1.98551379530E+02  2.49598600756E+02  7.94633059788E+01  1.6951E-14  9.0
      -13    1    3    3    0    0  7.00888901482E+01  3.48301477188E+01 -1.19713068116E+02  1.43027345506E+02  1.05700000000E-01  0.0000E+00  9.0
       14    1    3    3    0    0  5.84017871636E+01 -4.20785980992E+01 -7.65196244646E+01  1.05055366784E+02  0.00000000000E+00  0.0000E+00  9.0
        1    1    4    4  500    0 -2.92731275760E+01 -2.74535955010E+00  2.33192201475E+00  2.94939122096E+01  0.00000000000E+00  0.0000E+00  9.0
       -2    1    4    4    0  500 -9.92175497358E+01  9.99380993047E+00  1.96219457516E+02  2.20104688547E+02  0.00000000000E+00  0.0000E+00  9.0
</event>
<event>
 8    1   5.1859766E+00   4.9900000E+02  -1.0000000E+00   9.3510000E-02
       11   -1    0    0    0    0  0.00000000000E+00  0.00000000000E+00  2.49995763560E+02  2.49995763560E+02  0.00000000000E+00  0.0000E+00  9.0
      -11   -1    0    0    0    0  0.00000000000E+00  0.00000000000E+00 -2.48975463980E+02  2.48975463980E+02  0.00000000000E+00  0.0000E+00  9.0
       24    2    1    2    0    0 -2.09924666492E+01 -3.17423668636E+01 -2.33313104514E+02  2.48551057843E+02  7.67747491503E+01  1.5386E-13  9.0
      -24    2    1    2    0    0  2.09924666492E+01  3.17423668636E+01  2.34333404094E+02  2.50420169709E+02  7.96859812814E+01  2.2627E-13  9.0
       -3    1    3    3    0  500 -4.63815892002E+01 -1.66386818043E+01 -9.39301091500E+01  1.06070556489E+02  0.00000000000E+00  0.0000E+00  9.0
        4    1    3    3  500    0  2.53891225510E+01 -1.51036850593E+01 -1.39382995364E+02  1.42480501354E+02  5.87386917370E-01  0.0000E+00  9.0
       13    1    4    4    0    0  3.50306710957E+01 -1.44238049022E+01  7.63538408510E+01  8.52356395557E+01  1.05700000000E-01  0.0000E+00  9.0
      -14    1    4    4    0    0 -1.40382044465E+01  4.61661717658E+01  1.57979563243E+02  1.65184530153E+02  0.00000000000E+00  0.0000E+00  9.0
</event>
<event>
 8    1   5.1859766E+00   4.8460000E+02  -1.0000000E+00   9.3840000E-02
       11   -1    0    0    0    0  0.00000000000E+00  0.00000000000E+00  2.50000000000E+02  2.50000000000E+02  0.00000000000E+00  0.0000E+00  9.0
      -11   -1    0    0    0    0  0.00000000000E+00  0.00000000000E+00 -2.34828992070E+02  2.34828992070E+02  0.00000000000E+00  0.0000E+00  9.0
       24    2    1    2    0    0 -2.17808224176E+01  2.60886214622E+01 -2.18432584063E+02  2.35470263968E+02  8.11075276261E+01  8.8201E-14  9.0
      -24    2    1    2    0    0  2.17808224176E+01 -2.60886214622E+01  2.33603591993E+02  2.49358728097E+02  8.03375173321E+01  7.4088E-15  9.0
       -1    1    3    3    0  500 -7.07216410160E+00 -1.57270364427E+01 -1.65643029819E+02  1.66538189338E+02  0.00000000000E+00  0.0000E+00  9.0
        2    1    3    3  500    0 -1.47086583160E+01  4.18156579050E+01 -5.27895542439E+01  6.89320746297E+01  0.00000000000E+00  0.0000E+00  9.0
       13    1    4    4    0    0  4.88033497298E+01 -2.81435978645E+01  1.19984726759E+02  1.32552536277E+02  1.05700000000E-01  0.0000E+00  9.0
      -14    1    4    4    0    0 -2.70225273121E+01  2.05497640227E+00  1.13618865234E+02  1.16806191820E+02  0.00000000000E+00  0.0000E+00  9.0
</event>
<event>
 8    1   5.1859766E+00   3.8590000E+02  -1.0000000E+00   9.6450000E-02
       11   -1    0    0    0    0  0.00000000000E+00  0.00000000000E+00  2.20940471190E+02  2.20940471190E+02  0.00000000000E+00  0.0000E+00  9.0
      -11   -1    0    0    0    0  0.00000000000E+00  0.00000000000E+00 -1.68526903650E+02  1.68526903650E+02  0.00000000000E+00  0.0000E+00  9.0
       24    2    1    2    0    0 -2.09327429109E+01  2.91722687260E+01 -1.37601701209E+02  1.80224511110E+02  1.10713347167E+02  1.0250E-14  9.0
      -24    2    1    2    0    0  2.09327429109E+01 -2.91722687260E+01  1.90015268759E+02  2.09242863733E+02  7.99222914649E+01  9.4469E-14  9.0
      -13    1    3    3    0    0 -2.25525540370E+01  5.99559028324E+01 -1.34830984728E+02  1.49274021830E+02  1.05700000000E-01  0.0000E+00  9.0
       14    1    3    3    0    0  1.61981112610E+00 -3.07836341065E+01 -2.77071648154E+00  3.09504892806E+01  0.00000000000E+00  0.0000E+00  9.0
       13    1    4    4    0    0 -4.64984186102E+00  1.11220140838E-01  1.60138364266E+02  1.60205930856E+02  1.05700000000E-01  0.0000E+00  9.0
      -14    1    4    4    0    0  2.55825847719E+01 -2.92834888668E+01  2.98769044933E+01  4.90369328764E+01  0.00000000000E+00  0.0000E+00  9.0
</event>
<event>
 8    1   5.1859766E+00   4.7470000E+02  -1.0000000E+00   9.4070000E-02
       11   -1    0    0    0    0  0.00000000000E+00  0.00000000000E+00  2.45305907320E+02  2.45305907320E+02  0.00000000000E+00  0.0000E+00  9.0
      -11   -1    0    0    0    0  0.00000000000E+00  0.00000000000E+00 -2.29677932900E+02  2.29677932900E+02  0.00000000000E+00  0.0000E+00  9.0
       24    2    1    2    0    0 -1.65720754331E+00  5.21471153556E+01 -2.09935217843E+02  2.30534860579E+02  7.96960367563E+01  3.5769E-14  9.0
      -24    2    1    2    0    0  1.65720754331E+00 -5.21471153556E+01  2.25563192273E+02  2.44448979647E+02  7.84505064696E+01  6.4791E-14  9.0
       -1    1    3    3    0  500 -3.32294300530E+01  5.16184831696E+01 -1.13175337465E+02  1.28752941080E+02  0.00000000000E+00  0.0000E+00  9.0
        2    1    3    3  500    0  3.15722225097E+01  5.28632186016E-01 -9.67598803783E+01  1.01781919500E+02  0.00000000000E+00  0.0000E+00  9.0
        3    1    4    4  504    0 -3.22526738557E+01 -3.93805734148E+01  1.74919432539E+02  1.82175389153E+02  0.00000000000E+00  0.0000E+00  9.0
       -4    1    4    4    0  504  3.39098813990E+01 -1.27665419408E+01  5.06437597341E+01  6.22735904940E+01  5.87386917370E-01  0.0000E+00  9.0
</event>
<event>
 8    1   5.1859766E+00   4.8520000E+02  -1.0000000E+00   9.3830000E-02
       11   -1    0    0    0    0  0.00000000000E+00  0.00000000000E+00  2.38596334960E+02  2.38596334960E+02  0.00000000000E+00  0.0000E+00  9.0
      -11   -1    0    0    0    0  0.00000000000E+00  0.00000000000E+00 -2.46620193700E+02  2.46620193700E+02  0.00000000000E+00  0.0000E+00  9.0
       24    2    1    2    0    0  8.06999447342E+01  5.77378432754E+01 -2.10282861347E+02  2.45758944549E+02  7.95766135472E+01  5.7398E-14  9.0
      -24    2    1    2    0    0 -8.06999447342E+01 -5.77378432754E+01  2.02259002607E+02  2.39457584098E+02  8.11485725103E+01  8.9854E-14  9.0
       -3    1    3    3    0  500  7.38801467962E+00 -7.78288712436E+00 -8.89140063343E+01  8.95592352318E+01  0.00000000000E+00  0.0000E+00  9.0
        4    1    3    3  500    0  7.33119300545E+01  6.55207303998E+01 -1.21368855012E+02  1.56199709317E+02  5.87386917370E-01  0.0000E+00  9.0
        3    1    4    4  504    0 -6.54731029301E+01 -4.92437329530E+01  7.51975388721E+01  1.11204057007E+02  0.00000000000E+00  0.0000E+00  9.0
       -4    1    4    4    0  504 -1.52268418041E+01 -8.49411032240E+00  1.27061463734E+02  1.28253527091E+02  5.87386917370E-01  0.0000E+00  9.0
</event>
<event>
 8    1   5.1859766E+00   4.9990000E+02  -1.0000000E+00   9.3490000E-02
       11   -1    0    0    0    0  0.00000000000E+00  0.00000000000E+00  2.49852838940E+02  2.49852838940E+02  0.00000000000E+00  0.0000E+00  9.0
      -11   -1    0    0    0    0  0.00000000000E+00  0.00000000000E+00 -2.50000000000E+02  2.50000000000E+02  0.00000000000E+00  0.0000E+00  9.0
       24    2    1    2    0    0  3.40723824083E-01 -6.51796522304E+01 -2.27700701585E+02  2.50061472798E+02  8.02161300364E+01  4.8417E-15  9.0
      -24    2    1    2    0    0 -3.40723824083E-01  6.51796522304E+01  2.27553540526E+02  2.49791366139E+02  7.97910373051E+01  2.9287E-14  9.0
       -3    1    3    3    0  500 -2.33669611216E+01 -7.54575196186E+00 -1.41935348712E+02  1.44043731064E+02  0.00000000000E+00  0.0000E+00  9.0
        4    1    3    3  500    0  2.37076849456E+01 -5.76339002685E+01 -8.57653528731E+01  1.06017741734E+02  5.87386917370E-01  0.0000E+00  9.0
       13    1    4    4    0    0  2.01721612234E+01  1.88134963277E+01  1.52523311865E+01  3.15199700445E+01  1.05700000000E-01  0.0000E+00  9.0
      -14    1    4    4    0    0 -2.05128850475E+01  4.63661559026E+01  2.12301209339E+02  2.18271396094E+02  0.00000000000E+00  0.0000E+00  9.0
</event>
<event>
 8    1   5.1859766E+00   4.9880000E+02  -1.0000000E+00   9.3520000E-02
       11   -1    0    0    0    0  0.00000000000E+00  0.00000000000E+00  2.49496971250E+02  2.49496971250E+02  0.00000000000E+00  0.0000E+00  9.0
      -11   -1    0    0    0    0  0.00000000000E+00  0.00000000000E+00 -2.49261873860E+02  2.49261873860E+02  0.00000000000E+00  0.0000E+00  9.0
       24    2    1    2    0    0  5.81218179176E+01 -1.13074358449E+02 -1.98735865101E+02  2.49095961656E+02  7.99305810018E+01  4.6011E-14  9.0
      -24    2    1    2    0    0 -5.81218179176E+01  1.13074358449E+02  1.98970962501E+02  2.49662883448E+02  8.11058271425E+01  2.3839E-13  9.0
      -13    1    3    3    0    0  2.36317841532E+01 -5.42600700254E+01 -1.60189978258E+02  1.70773114770E+02  1.05700000000E-01  0.0000E+00  9.0
       14    1    3    3    0    0  3.44900337643E+01 -5.88142884234E+01 -3.85458868426E+01  7.83228468858E+01  0.00000000000E+00  0.0000E+00  9.0
        1    1    4    4  500    0 -5.78814120620E+00  9.53353667630E+01  1.23419405815E+02  1.56059874620E+02  0.00000000000E+00  0.0000E+00  9.0
       -2    1    4    4    0  500 -5.23336767114E+01  1.77389916858E+01  7.55515566857E+01  9.36030088287E+01  0.00000000000E+00  0.0000E+00  9.0
</event>
<event>
 8    1   5.1859766E+00   2.7740000E+02  -1.0000000E+00   1.0050000E-01
       11   -1    0    0    0    0  0.00000000000E+00  0.00000000000E+00  2.49843941730E+02  2.49843941730E+02  0.00000000000E+00  0.0000E+00  9.0
      -11   -1    0    0    0    0  0.00000000000E+00  0.00000000000E+00 -7.70045089190E+01  7.70045089190E+01  0.00000000000E+00  0.0000E+00  9.0
       24    2    1    2    0    0  3.48901725725E+01  1.05867841212E+02  1.13542649784E+02  1.76061255872E+02  7.53678217420E+01  1.1155E-13  9.0
      -24    2    1    2    0    0 -3.48901725725E+01 -1.05867841212E+02  5.92967830245E+01  1.50787194778E+02  8.24338867637E+01  3.0338E-13  9.0
       -1    1    3    3    0  500  3.55271502407E+01  1.16477566459E+02  9.40741343586E+01  1.53880293240E+02  0.00000000000E+00  0.0000E+00  9.0
        2    1    3    3  500    0 -6.36977668256E-01 -1.06097252472E+01  1.94685154259E+01  2.21809626315E+01  0.00000000000E+00  0.0000E+00  9.0
        3    1    4    4  504    0 -5.57541618712E+01 -5.35520229575E+01  5.38189051722E+01  9.41956489586E+01  0.00000000000E+00  0.0000E+00  9.0
       -4    1    4    4    0  504  2.08639892987E+01 -5.23158182542E+01  5.47787785235E+00  5.65915458194E+01  5.87386917370E-01  0.0000E+00  9.0
</event>
<event>
 8    1   5.1859766E+00   4.6900000E+02  -1.0000000E+00   9.4200000E-02
       11   -1    0    0    0    0  0.00000000000E+00  0.00000000000E+00  2.40799631640E+02  2.40799631640E+02  0.00000000000E+00  0.0000E+00  9.0
      -11   -1    0    0    0    0  0.00000000000E+00  0.00000000000E+00 -2.28409470980E+02  2.28409470980E+02  0.00000000000E+00  0.0000E+00  9.0
       24    2    1    2    0    0  6.06274975002E+01  1.31478190766E+00 -2.02716896784E+02  2.31610014318E+02  9.41893645065E+01  9.8651E-14  9.0
      -24    2    1    2    0    0 -6.06274975002E+01 -1.31478190766E+00  2.15107057454E+02  2.37599088295E+02  8.06527029144E+01  1.3977E-13  9.0
      -13    1    3    3    0    0  4.49033877507E+01  2.88559005527E+01 -1.90146217695E+02  1.97495753130E+02  1.05700000000E-01  0.0000E+00  9.0
       14    1    3    3    0    0  1.57241097495E+01 -2.75411186451E+01 -1.25706790885E+01  3.41142611877E+01  0.00000000000E+00  0.0000E+00  9.0
        1    1    4    4  500    0 -5.86045585765E+01  7.55566237183E+00  6.74910925829E+01  8.97030094136E+01  0.00000000000E+00  0.0000E+00  9.0
       -2    1    4    4    0  500 -2.02293892368E+00 -8.87044427948E+00  1.47615964871E+02  1.47896078881E+02  0.00000000000E+00  0.0000E+00  9.0
</event>
<event>
 8    1   5.1859766E+00   4.9960000E+02  -1.0000000E+00   9.3500000E-02
       11   -1    0    0    0    0  0.00000000000E+00  0.00000000000E+00  2.49955310540E+02  2.49955310540E+02  0.00000000000E+00  0.0000E+00  9.0
      -11   -1    0    0    0    0  0.00000000000E+00  0.00000000000E+00 -2.49624044880E+02  2.49624044880E+02  0.00000000000E+00  0.0000E+00  9.0
       24    2    1    2    0    0 -5.14392081075E+00 -2.64304531053E+01 -2.34874432653E+02  2.49853954682E+02  8.08453510323E+01  3.5237E-14  9.0
      -24    2    1    2    0    0  5.14392081075E+00  2.64304531053E+01  2.35205698303E+02  2.49725400733E+02  7.94734325695E+01  4.1953E-14  9.0
       -3    1    3    3    0  500  3.67330330118E+01 -2.25170337801E+00 -9.72758639826E+01  1.04004709489E+02  0.00000000000E+00  0.0000E+00  9.0
        4    1    3    3  500    0 -4.18769538225E+01 -2.41787497273E+01 -1.37598568670E+02  1.45849245193E+02  5.87386917370E-01  0.0000E+00  9.0
        3    1    4    4  504    0  4.23477616332E+01  1.28307098944E+01  1.28228883484E+02  1.35648835569E+02  0.00000000000E+00  0.0000E+00  9.0
       -4    1    4    4    0  504 -3.72038408225E+01  1.35997432109E+01  1.06976814819E+02  1.14076565163E+02  5.87386917370E-01  0.0000E+00  9.0
</event>
<event>
 8    1   5.1859766E+00   4.9860000E+02  -1.0000000E+00   9.3520000E-02
       11   -1    0    0    0    0  0.00000000000E+00  0.00000000000E+00  2.49994428820E+02  2.49994428820E+02  0.00000000000E+00  0.0000E+00  9.0
      -11   -1    0    0    0    0  0.00000000000E+00  0.00000000000E+00 -2.48581684290E+02  2.48581684290E+02  0.00000000000E+00  0.0000E+00  9.0
       24    2    1    2    0    0 -6.08219073208E+01 -3.38264740325E+01 -2.24317287637E+02  2.48390554740E+02  8.08460722328E+01  1.1338E-13  9.0
      -24    2    1    2    0    0  6.08219073208E+01  3.38264740325E+01  2.25730032167E+02  2.50185558363E+02  8.24331937754E+01  2.6774E-13  9.0
       -3    1    3    3    0  500 -1.72391936163E+01 -6.50082512869E+00 -1.78660762149E+02  1.79608236046E+02  0.00000000000E+00  0.0000E+00  9.0
        4    1    3    3  500    0 -4.35827137045E+01 -2.73256489038E+01 -4.56565254881E+01  6.87823186938E+01  5.87386917370E-01  0.0000E+00  9.0
        1    1    4    4  504    0  1.90432035235E+01 -4.04940495669E+00  1.69274359063E+02  1.70390287039E+02  0.00000000000E+00  0.0000E+00  9.0
       -2    1    4    4    0  504  4.17787037973E+01  3.78758789892E+01  5.64556731036E+01  7.97952713246E+01  0.00000000000E+00  0.0000E+00  9.0
</event>
<event>
 8    1   5.1859766E+00   3.3190000E+02  -1.0000000E+00   9.8260000E-02
       11   -1    0    0    0    0  0.00000000000E+00  0.00000000000E+00  2.44214381040E+02  2.44214381040E+02  0.00000000000E+00  0.0000E+00  9.0
      -11   -1    0    0    0    0  0.00000000000E+00  0.00000000000E+00 -1.12797513330E+02  1.12797513330E+02  0.00000000000E+00  0.0000E+00  9.0
       24    2    1    2    0    0 -7.79656495769E+01  1.01131021844E+02 -8.80241354844E+00  1.51150732043E+02  8.03923828469E+01  1.8326E-14  9.0
      -24    2    1    2    0    0  7.79656495769E+01 -1.01131021844E+02  1.40219281254E+02  2.05861162331E+02  8.00702518287E+01  3.1857E-14  9.0
       -1    1    3    3    0  500 -1.53923699321E+01  8.18590422720E+01 -1.74690321244E+01  8.51057867432E+01  0.00000000000E+00  0.0000E+00  9.0
        2    1    3    3  500    0 -6.25732796448E+01  1.92719795715E+01  8.66661857596E+00  6.60449452998E+01  0.00000000000E+00  0.0000E+00  9.0
        1    1    4    4  504    0  1.63873461080E+01 -8.49862478732E+01  7.23475387410E+01  1.12806798562E+02  0.00000000000E+00  0.0000E+00  9.0
       -2    1    4    4    0  504  6.15783034689E+01 -1.61447739703E+01  6.78717425132E+01  9.30543637689E+01  0.00000000000E+00  0.0000E+00  9.0
</event>
<event>
 8    1   5.1859766E+00   4.9960000E+02  -1.0000000E+00   9.3500000E-02
       11   -1    0    0    0    0  0.00000000000E+00  0.00000000000E+00  2.49653914970E+02  2.49653914970E+02  0.00000000000E+00  0.0000E+00  9.0
      -11   -1    0    0    0    0  0.00000000000E+00  0.00000000000E+00 -2.49995957330E+02  2.49995957330E+02  0.00000000000E+00  0.0000E+00  9.0
       24    2    1    2    0    0 -1.46984649020E+01 -2.62258730055E+01 -2.34828635701E+02  2.50240400171E+02  8.10674314841E+01  1.4530E-13  9.0
      -24    2    1    2    0    0  1.46984649020E+01  2.62258730055E+01  2.34486593331E+02  2.49409472130E+02  7.94813251710E+01  6.5204E-15  9.0
       -3    1    3    3    0  500  1.80002445539E+01  2.15215235835E+01 -6.41641081659E+01  7.00301189352E+01  0.00000000000E+00  0.0000E+00  9.0
        4    1    3    3  500    0 -3.26987094559E+01 -4.77473965890E+01 -1.70664527535E+02  1.80210281236E+02  5.87386917370E-01  0.0000E+00  9.0
        1    1    4    4  504    0 -1.16254953487E+01 -2.41085583601E+01  9.76483672699E+01  1.01250078315E+02  0.00000000000E+00  0.0000E+00  9.0
       -2    1    4    4    0  504  2.63239602507E+01  5.03344313655E+01  1.36838226061E+02  1.48159393815E+02  0.00000000000E+00  0.0000E+00  9.0
</event>
<event>
 8    1   5.1859766E+00   4.7460000E+02  -1.0000000E+00   9.4070000E-02
       11   -1    0    0    0    0  0.00000000000E+00  0.00000000000E+00  2.49818998730E+02  2.49818998730E+02  0.00000000000E+00  0.0000E+00  9.0
      -11   -1    0    0    0    0  0.00000000000E+00  0.00000000000E+00 -2.25396839230E+02  2.25396839230E+02  0.00000000000E+00  0.0000E+00  9.0
       24    2    1    2    0    0 -3.87640479819E+01  5.32564230582E+01 -2.02490356245E+02  2.27069748326E+02  7.88633515642E+01  3.8706E-14  9.0
      -24    2    1    2    0    0  3.87640479819E+01 -5.32564230582E+01  2.26912515745E+02  2.48146089635E+02  7.58175044873E+01  6.2167E-14  9.0
       -1    1    3    3    0  500  1.28834718354E+01 -1.02144960661E+01 -6.52153972223E+01  6.72559871780E+01  0.00000000000E+00  0.0000E+00  9.0
        2    1    3    3  500    0 -5.16475198173E+01  6.34709191243E+01 -1.37274959022E+02  1.59813761148E+02  0.00000000000E+00  0.0000E+00  9.0
        3    1    4    4  504    0  4.51288593282E+01 -6.26866851222E+01  2.23163255916E+02  2.36152648147E+02  0.00000000000E+00  0.0000E+00  9.0
       -4    1    4    4    0  504 -6.36481134622E+00  9.43026206396E+00  3.74925982852E+00  1.19934414878E+01  5.87386917370E-01  0.0000E+00  9.0
</event>
<event>
 8    1   5.1859766E+00   4.8100000E+02  -1.0000000E+00   9.3920000E-02
       11   -1    0    0    0    0  0.00000000000E+00  0.00000000000E+00  2.49479359690E+02  2.49479359690E+02  0.00000000000E+00  0.0000E+00  9.0
      -11   -1    0    0    0    0  0.00000000000E+00  0.00000000000E+00 -2.31798880160E+02  2.31798880160E+02  0.00000000000E+00  0.0000E+00  9.0
       24    2    1    2    0    0 -8.64762908624E+01  3.37559905787E+00 -1.99459899535E+02  2.34200570677E+02  8.70408653039E+01  2.4124E-13  9.0
      -24    2    1    2    0    0  8.64762908624E+01 -3.37559905787E+00  2.17140379065E+02  2.47077669172E+02  8.00492775293E+01  6.6855E-14  9.0
       -3    1    3    3    0  500 -2.84468085299E+01  2.52580748776E+01 -1.50357154792E+02  1.55095020098E+02  0.00000000000E+00  0.0000E+00  9.0
        4    1    3    3  500    0 -5.80294823325E+01 -2.18824758198E+01 -4.91027447426E+01  7.91055505791E+01  5.87386917370E-01  0.0000E+00  9.0
        3    1    4    4  504    0 -1.36432760820E+01 -7.81148409484E+00  4.76252308995E+01  5.01529748295E+01  0.00000000000E+00  0.0000E+00  9.0
       -4    1    4    4    0  504  1.00119566944E+02  4.43588503698E+00  1.69515148165E+02  1.96924694343E+02  5.87386917370E-01  0.0000E+00  9.0
</event>
<event>
 8    1   5.1859766E+00   4.9950000E+02  -1.0000000E+00   9.3500000E-02
       11   -1    0    0    0    0  0.00000000000E+00  0.00000000000E+00  2.49527795430E+02  2.49527795430E+02  0.00000000000E+00  0.0000E+00  9.0
      -11   -1    0    0    0    0  0.00000000000E+00  0.00000000000E+00 -2.49999993500E+02  2.49999993500E+02  0.00000000000E+00  0.0000E+00  9.0
       24    2    1    2    0    0 -5.26827195091E+01 -1.83901616508E+02 -1.39547558703E+02  2.49816690160E+02  7.96215049703E+01  1.1811E-13  9.0
      -24    2    1    2    0    0  5.26827195091E+01  1.83901616508E+02  1.39075360633E+02  2.49711098781E+02  8.01149388709E+01  8.6801E-14  9.0
       -3    1    3    3    0  500  1.30970737749E+01 -7.51173544242E+01 -7.61299217838E+01  1.07749316787E+02  0.00000000000E+00  0.0000E+00  9.0
        4    1    3    3  500    0 -6.57797932841E+01 -1.08784262083E+02 -6.34176369188E+01  1.42067373374E+02  5.87386917370E-01  0.0000E+00  9.0
        3    1    4    4  504    0 -1.11195462246E+01 -1.39932554291E+00  1.02117154788E+01  1.51618453110E+01  0.00000000000E+00  0.0000E+00  9.0
       -4    1    4    4    0  504  6.38022657337E+01  1.85300942050E+02  1.28863645154E+02  2.34549253470E+02  5.87386917370E-01  0.0000E+00  9.0
</event>
<event>
 8    1   5.1859766E+00   4.9890000E+02  -1.0000000E+00   9.3520000E-02
       11   -1    0    0    0    0  0.00000000000E+00  0.00000000000E+00  2.48883878940E+02  2.48883878940E+02  0.00000000000E+00  0.0000E+00  9.0
      -11   -1    0    0    0    0  0.00000000000E+00  0.00000000000E+00 -2.50000000000E+02  2.50000000000E+02  0.00000000000E+00  0.0000E+00  9.0
       24    2    1    2    0    0  1.42968587265E+01 -2.38081515725E+01 -2.35519026801E+02  2.50321185744E+02  8.01264987166E+01  1.6721E-14  9.0
      -24    2    1    2    0    0 -1.42968587265E+01  2.38081515725E+01  2.34402905741E+02  2.48562693200E+02  7.78939149132E+01  3.2435E-14  9.0
       -3    1    3    3    0  500  1.06949005897E+01  2.72328484983E+01 -1.27227407599E+02  1.30548160387E+02  0.00000000000E+00  0.0000E+00  9.0
        4    1    3    3  500    0  3.60195813674E+00 -5.10410000708E+01 -1.08291619202E+02  1.19773025358E+02  5.87386917370E-01  0.0000E+00  9.0
        1    1    4    4  504    0  1.78769892703E+01  4.10109155514E+01  1.51936982686E+02  1.58386642895E+02  0.00000000000E+00  0.0000E+00  9.0
       -2    1    4    4    0  504 -3.21738479968E+01 -1.72027639789E+01  8.24659230548E+01  9.01760503056E+01  0.00000000000E+00  0.0000E+00  9.0
</event>
<event>
 8    1   5.1859766E+00   5.0000000E+02  -1.0000000E+00   9.3490000E-02
       11   -1    0    0    0    0  0.00000000000E+00  0.00000000000E+00  2.49999102940E+02  2.49999102940E+02  0.00000000000E+00  0.0000E+00  9.0
      -11   -1    0    0    0    0  0.00000000000E+00  0.00000000000E+00 -2.49983379180E+02  2.49983379180E+02  0.00000000000E+00  0.0000E+00  9.0
       24    2    1    2    0    0 -3.55667355181E+01 -3.22999990330E+01 -2.31080742016E+02  2.49698613515E+02  8.15034088120E+01  3.4519E-14  9.0
      -24    2    1    2    0    0  3.55667355181E+01  3.22999990330E+01  2.31096465776E+02  2.50283868603E+02  8.32355439456E+01  4.9110E-13  9.0
       -3    1    3    3    0  500 -3.00204958163E+01 -3.04226293707E+01 -2.37310621853E+02  2.41128799174E+02  0.00000000000E+00  0.0000E+00  9.0
        4    1    3    3  500    0 -5.54623970183E+00 -1.87736966229E+00  6.22987983681E+00  8.56981434168E+00  5.87386917370E-01  0.0000E+00  9.0
        1    1    4    4  504    0  3.17428688095E+01  1.97706910246E+01  2.33914000801E+02  2.36884464908E+02  0.00000000000E+00  0.0000E+00  9.0
       -2    1    4    4    0  504  3.82386670867E+00  1.25293080084E+01 -2.81753502526E+00  1.33994036954E+01  0.00000000000E+00  0.0000E+00  9.0
</event>
<event>
 8    1   5.1859766E+00   4.2310000E+02  -1.0000000E+00   9.5380000E-02
       11   -1    0    0    0    0  0.00000000000E+00  0.00000000000E+00  1.79002788490E+02  1.79002788490E+02  0.00000000000E+00  0.0000E+00  9.0
      -11   -1    0    0    0    0  0.00000000000E+00  0.00000000000E+00 -2.50000000000E+02  2.50000000000E+02  0.00000000000E+00  0.0000E+00  9.0
       24    2    1    2    0    0  1.31525350345E+01 -7.11517107772E+00 -2.32601319282E+02  2.48071803545E+02  8.49272108634E+01  1.5971E-13  9.0
      -24    2    1    2    0    0 -1.31525350345E+01  7.11517107772E+00  1.61604107772E+02  1.80930984944E+02  7.99782397064E+01  1.2899E-14  9.0
       -1    1    3    3    0  500  1.91275185691E+01 -1.30208434380E+01 -9.82693962767E+00  2.51390746229E+01  0.00000000000E+00  0.0000E+00  9.0
        2    1    3    3  500    0 -5.97498353461E+00  5.90567236031E+00 -2.22774379655E+02  2.22932728922E+02  0.00000000000E+00  0.0000E+00  9.0
        1    1    4    4  504    0  2.83365591456E+01 -1.49642674804E+01  8.74625407964E+01  9.31481933695E+01  0.00000000000E+00  0.0000E+00  9.0
       -2    1    4    4    0  504 -4.14890941801E+01  2.20794385581E+01  7.41415669760E+01  8.77827915743E+01  0.00000000000E+00  0.0000E+00  9.0
</event>
<event>
 8    1   5.1859766E+00   5.0000000E+02  -1.0000000E+00   9.3490000E-02
       11   -1    0    0    0    0  0.00000000000E+00  0.00000000000E+00  2.49977393150E+02  2.49977393150E+02  0.00000000000E+00  0.0000E+00  9.0
      -11   -1    0    0    0    0  0.00000000000E+00  0.00000000000E+00 -2.49988147030E+02  2.49988147030E+02  0.00000000000E+00  0.0000E+00  9.0
       24    2    1    2    0    0  7.96479328246E+00  1.15921092506E+01 -2.35572929266E+02  2.51093804757E+02  8.57652543619E+01  5.0497E-14  9.0
      -24    2    1    2    0    0 -7.96479328246E+00 -1.15921092506E+01  2.35562175386E+02  2.48871735414E+02  7.90555961752E+01  3.0390E-13  9.0
       -1    1    3    3    0  500 -9.77748850624E-01  4.58898418730E+01 -8.71628629625E+01  9.85098891470E+01  0.00000000000E+00  0.0000E+00  9.0
        2    1    3    3  500    0  8.94254213309E+00 -3.42977326224E+01 -1.48410066303E+02  1.52583915610E+02  0.00000000000E+00  0.0000E+00  9.0
        1    1    4    4  504    0 -4.05610265873E+01 -2.15830152801E+01  1.25251568161E+02  1.33412813302E+02  0.00000000000E+00  0.0000E+00  9.0
       -2    1    4    4    0  504  3.25962333048E+01  9.99090602946E+00  1.10310607225E+02  1.15458922112E+02  0.00000000000E+00  0.0000E+00  9.0
</event>
<event>
 8    1   5.1859766E+00   4.9830000E+02  -1.0000000E+00   9.3530000E-02
       11   -1    0    0    0    0  0.00000000000E+00  0.00000000000E+00  2.50000000000E+02  2.50000000000E+02  0.00000000000E+00  0.0000E+00  9.0
      -11   -1    0    0    0    0  0.00000000000E+00  0.00000000000E+00 -2.48338270890E+02  2.48338270890E+02  0.00000000000E+00  0.0000E+00  9.0
       24    2    1    2    0    0 -4.10255741106E+01 -1.06571044400E+01 -2.30941495765E+02  2.49497215216E+02  8.43695106550E+01  1.0129E-15  9.0
      -24    2    1    2    0    0  4.10255741106E+01  1.06571044400E+01  2.32603224875E+02  2.48841055671E+02  7.75947108955E+01  3.6465E-13  9.0
       -3    1    3    3    0  500 -6.17940209051E+01 -1.24529777608E+00 -1.07802425010E+02  1.24263488701E+02  0.00000000000E+00  0.0000E+00  9.0
        4    1    3    3  500    0  2.07684467945E+01 -9.41180666395E+00 -1.23139070756E+02  1.25233726515E+02  5.87386917370E-01  0.0000E+00  9.0
        3    1    4    4  504    0  2.77453952030E+01 -6.63352266069E+00  2.23324886559E+02  2.25139546802E+02  0.00000000000E+00  0.0000E+00  9.0
       -4    1    4    4    0  504  1.32801789076E+01  1.72906271007E+01  9.27833831670E+00  2.37015088689E+01  5.87386917370E-01  0.0000E+00  9.0
</event>
<event>
 8    1   5.1859766E+00   4.8750000E+02  -1.0000000E+00   9.3770000E-02
       11   -1    0    0    0    0  0.00000000000E+00  0.00000000000E+00  2.37651616660E+02  2.37651616660E+02  0.00000000000E+00  0.0000E+00  9.0
      -11   -1    0    0    0    0  0.00000000000E+00  0.00000000000E+00 -2.49999981270E+02  2.49999981270E+02  0.00000000000E+00  0.0000E+00  9.0
       24    2    1    2    0    0  2.78504254015E+01  6.24448868963E+01 -2.25902096497E+02  2.49111698910E+02  7.96860793218E+01  4.5662E-14  9.0
      -24    2    1    2    0    0 -2.78504254015E+01 -6.24448868963E+01  2.13553731877E+02  2.38539899017E+02  8.13700001849E+01  2.1323E-14  9.0
      -13    1    3    3    0    0  4.55914487482E+01  3.00263389799E+01 -1.89623360137E+02  1.97325089924E+02  1.05700000000E-01  0.0000E+00  9.0
       14    1    3    3    0    0 -1.77410233467E+01  3.24185479164E+01 -3.62787363602E+01  5.17866089862E+01  0.00000000000E+00  0.0000E+00  9.0
        1    1    4    4  500    0 -6.39389363699E+00 -4.70603874677E+01  3.74876210331E+01  6.05052367583E+01  0.00000000000E+00  0.0000E+00  9.0
       -2    1    4    4    0  500 -2.14565317645E+01 -1.53844994286E+01  1.76066110844E+02  1.78034662259E+02  0.00000000000E+00  0.0000E+00  9.0
</event>
<event>
 8    1   5.1859766E+00   4.9470000E+02  -1.0000000E+00   9.3610000E-02
       11   -1    0    0    0    0  0.00000000000E+00  0.00000000000E+00  2.49998671010E+02  2.49998671010E+02  0.00000000000E+00  0.0000E+00  9.0
      -11   -1    0    0    0    0  0.00000000000E+00  0.00000000000E+00 -2.44712091510E+02  2.44712091510E+02  0.00000000000E+00  0.0000E+00  9.0
       24    2    1    2    0    0 -1.22454201804E+02  1.12370670497E+02 -1.62271883584E+02  2.45509373179E+02  7.95015030649E+01  5.6736E-14  9.0
      -24    2    1    2    0    0  1.22454201804E+02 -1.12370670497E+02  1.67558463084E+02  2.49201389334E+02  8.00205896476E+01  9.9541E-14  9.0
       -1    1    3    3    0  500  3.98711516769E+00 -4.97231406665E+00 -2.28115826569E+01  2.36852126410E+01  0.00000000000E+00  0.0000E+00  9.0
        2    1    3    3  500    0 -1.26441316971E+02  1.17342984563E+02 -1.39460300927E+02  2.21824160538E+02  0.00000000000E+00  0.0000E+00  9.0
        3    1    4    4  504    0  3.37041784085E+01  6.51116693119E+00  4.60438490928E+01  5.74317244759E+01  0.00000000000E+00  0.0000E+00  9.0
       -4    1    4    4    0  504  8.87500233951E+01 -1.18881837428E+02  1.21514613991E+02  1.91769664858E+02  5.87386917370E-01  0.0000E+00  9.0
</event>
<event>
 8    1   5.1859766E+00   4.9670000E+02  -1.0000000E+00   9.3560000E-02
       11   -1    0    0    0    0  0.00000000000E+00  0.00000000000E+00  2.49999999710E+02  2.49999999710E+02  0.00000000000E+00  0.0000E+00  9.0
      -11   -1    0    0    0    0  0.00000000000E+00  0.00000000000E+00 -2.46702772620E+02  2.46702772620E+02  0.00000000000E+00  0.0000E+00  9.0
       24    2    1    2    0    0 -1.09162329703E+02  2.07055980790E+02 -2.95267547462E+01  2.48172298427E+02  7.70004354125E+01  7.5405E-14  9.0
      -24    2    1    2    0    0  1.09162329703E+02 -2.07055980790E+02  3.28239818402E+01  2.48530473904E+02  7.68205003135E+01  4.0357E-14  9.0
       -1    1    3    3    0  500 -1.58048796316E+00  5.06959364768E+01 -2.88991061561E+01  5.83758019567E+01  0.00000000000E+00  0.0000E+00  9.0
        2    1    3    3  500    0 -1.07581841739E+02  1.56360044313E+02 -6.27648590050E-01  1.89796496470E+02  0.00000000000E+00  0.0000E+00  9.0
        1    1    4    4  504    0  3.74711300082E+01 -4.16574540860E+01 -2.18716205177E+01  6.01481242358E+01  0.00000000000E+00  0.0000E+00  9.0
       -2    1    4    4    0  504  7.16911996945E+01 -1.65398526704E+02  5.46956023579E+01  1.88382349668E+02  0.00000000000E+00  0.0000E+00  9.0
</event>
<event>
 8    1   5.1859766E+00   4.9570000E+02  -1.0000000E+00   9.3590000E-02
       11   -1    0    0    0    0  0.00000000000E+00  0.00000000000E+00  2.49995248680E+02  2.49995248680E+02  0.00000000000E+00  0.0000E+00  9.0
      -11   -1    0    0    0    0  0.00000000000E+00  0.00000000000E+00 -2.45681891240E+02  2.45681891240E+02  0.00000000000E+00  0.0000E+00  9.0
       24    2    1    2    0    0  1.75190107031E+01 -1.90224288902E+01 -2.30538376961E+02  2.46793231606E+02  8.42032503980E+01  6.3493E-14  9.0
      -24    2    1    2    0    0 -1.75190107031E+01  1.90224288902E+01  2.34851734391E+02  2.48883908315E+02  7.82246389247E+01  1.5490E-13  9.0
       -3    1    3    3    0  500 -7.06858892519E+00 -4.88835071090E+01 -1.30862459714E+02  1.39873319754E+02  0.00000000000E+00  0.0000E+00  9.0
        4    1    3    3  500    0  2.45875996283E+01  2.98610782188E+01 -9.96759172469E+01  1.06919911851E+02  5.87386917370E-01  0.0000E+00  9.0
        1    1    4    4  504    0  9.84352437598E+00  2.55674392718E+01  2.08640825283E+02  2.10431896104E+02  0.00000000000E+00  0.0000E+00  9.0
       -2    1    4    4    0  504 -2.73625350790E+01 -6.54501038161E+00  2.62109091083E+01  3.84520122117E+01  0.00000000000E+00  0.0000E+00  9.0
</event>
<event>
 8    1   5.1859766E+00   4.9990000E+02  -1.0000000E+00   9.3490000E-02
       11   -1    0    0    0    0  0.00000000000E+00  0.00000000000E+00  2.49892898180E+02  2.49892898180E+02  0.00000000000E+00  0.0000E+00  9.0
      -11   -1    0    0    0    0  0.00000000000E+00  0.00000000000E+00 -2.49999358060E+02  2.49999358060E+02  0.00000000000E+00  0.0000E+00  9.0
       24    2    1    2    0    0  1.84473817305E+01 -5.96854971695E+00 -2.36147160682E+02  2.50002367516E+02  7.97481835983E+01  7.5686E-14  9.0
      -24    2    1    2    0    0 -1.84473817305E+01  5.96854971695E+00  2.36040700802E+02  2.49889888720E+02  7.97108184061E+01  1.4488E-14  9.0
       -3    1    3    3    0  500  4.78487503939E+01 -1.38955316063E+01 -1.20108401869E+02  1.30033137747E+02  0.00000000000E+00  0.0000E+00  9.0
        4    1    3    3  500    0 -2.94013686634E+01  7.92698188939E+00 -1.16038758813E+02  1.19969229769E+02  5.87386917370E-01  0.0000E+00  9.0
        3    1    4    4  504    0  1.08062524444E+01  3.61224413214E+01  1.41420264408E+02  1.46360162081E+02  0.00000000000E+00  0.0000E+00  9.0
       -4    1    4    4    0  504 -2.92536341749E+01 -3.01538916044E+01  9.46204363936E+01  1.03529726639E+02  5.87386917370E-01  0.0000E+00  9.0
</event>
<event>
 8    1   5.1859766E+00   3.3370000E+02  -1.0000000E+00   9.8190000E-02
       11   -1    0    0    0    0  0.00000000000E+00  0.00000000000E+00  1.20489078520E+02  1.20489078520E+02  0.00000000000E+00  0.0000E+00  9.0
      -11   -1    0    0    0    0  0.00000000000E+00  0.00000000000E+00 -2.31065381960E+02  2.31065381960E+02  0.00000000000E+00  0.0000E+00  9.0
       24    2    1    2    0    0  2.38442863155E+00  2.70628372404E+01 -2.02788467384E+02  2.19923613318E+02  8.06545133964E+01  1.0018E-13  9.0
      -24    2    1    2    0    0 -2.38442863155E+00 -2.70628372404E+01  9.22121639454E+01  1.31630847168E+02  8.99194866945E+01  4.7615E-14  9.0
       -1    1    3    3    0  500  1.67394991188E+01  5.16409071776E+01 -1.55799096609E+02  1.64985916457E+02  0.00000000000E+00  0.0000E+00  9.0
        2    1    3    3  500    0 -1.43550704872E+01 -2.45780699371E+01 -4.69893707755E+01  5.49376968611E+01  0.00000000000E+00  0.0000E+00  9.0
       13    1    4    4    0    0  8.26551947369E+00  3.18419421471E+01  2.30895055953E+01  4.01915977910E+01  1.05700000000E-01  0.0000E+00  9.0
      -14    1    4    4    0    0 -1.06499481052E+01 -5.89047793875E+01  6.91226583500E+01  9.14392493775E+01  0.00000000000E+00  0.0000E+00  9.0
</event>
<event>
 8    1   5.1859766E+00   5.0000000E+02  -1.0000000E+00   9.3490000E-02
       11   -1    0    0    0    0  0.00000000000E+00  0.00000000000E+00  2.50000000000E+02  2.50000000000E+02  0.00000000000E+00  0.0000E+00  9.0
      -11   -1    0    0    0    0  0.00000000000E+00  0.00000000000E+00 -2.49999570610E+02  2.49999570610E+02  0.00000000000E+00  0.0000E+00  9.0
       24    2    1    2    0    0  1.53759026286E+01  5.66381046619E+01 -2.35630106268E+02  2.44066732779E+02  2.45505557606E+01  3.8369E-14  9.0
      -24    2    1    2    0    0 -1.53759026286E+01 -5.66381046619E+01  2.35630535658E+02  2.55932837836E+02  8.08429023931E+01  3.7579E-13  9.0
       -3    1    3    3    0  500  5.63139407857E+00  4.25384365844E+01 -1.99643688268E+02  2.04202922240E+02  0.00000000000E+00  0.0000E+00  9.0
        4    1    3    3  500    0  9.74450855002E+00  1.40996680775E+01 -3.59864179998E+01  3.98638105382E+01  5.87386917370E-01  0.0000E+00  9.0
        3    1    4    4  504    0 -4.35501152779E+01 -3.51133739488E+01  1.90461819317E+02  1.98507597307E+02  0.00000000000E+00  0.0000E+00  9.0
       -4    1    4    4    0  504  2.81742126493E+01 -2.15247307131E+01  4.51687163405E+01  5.74252405299E+01  5.87386917370E-01  0.0000E+00  9.0
</event>
<event>
 8    1   5.1859766E+00   5.0000000E+02  -1.0000000E+00   9.3490000E-02
       11   -1    0    0    0    0  0.00000000000E+00  0.00000000000E+00  2.50000000000E+02  2.50000000000E+02  0.00000000000E+00  0.0000E+00  9.0
      -11   -1    0    0    0    0  0.00000000000E+00  0.00000000000E+00 -2.49999830720E+02  2.49999830720E+02  0.00000000000E+00  0.0000E+00  9.0
       24    2    1    2    0    0  2.14395515897E+01 -2.58071267704E+01 -2.35070346718E+02  2.49308392073E+02  7.59667314536E+01  1.0005E-13  9.0
      -24    2    1    2    0    0 -2.14395515897E+01  2.58071267704E+01  2.35070515998E+02  2.50691438641E+02  8.03889778019E+01  9.3848E-14  9.0
       -1    1    3    3    0  500  3.72477231737E+01 -4.47016877937E+01 -1.73265107088E+02  1.82774262705E+02  0.00000000000E+00  0.0000E+00  9.0
        2    1    3    3  500    0 -1.58081715840E+01  1.88945610233E+01 -6.18052396297E+01  6.65341293681E+01  0.00000000000E+00  0.0000E+00  9.0
        1    1    4    4  504    0  3.74177529630E+00 -9.62092375382E+00 -1.25780082055E+00  1.03992845499E+01  0.00000000000E+00  0.0000E+00  9.0
       -2    1    4    4    0  504 -2.51813268860E+01  3.54280505242E+01  2.36328316818E+02  2.40292154091E+02  0.00000000000E+00  0.0000E+00  9.0
</event>
<event>
 8    1   5.1859766E+00   4.7550000E+02  -1.0000000E+00   9.4050000E-02
       11   -1    0    0    0    0  0.00000000000E+00  0.00000000000E+00  2.28082868590E+02  2.28082868590E+02  0.00000000000E+00  0.0000E+00  9.0
      -11   -1    0    0    0    0  0.00000000000E+00  0.00000000000E+00 -2.47786431170E+02  2.47786431170E+02  0.00000000000E+00  0.0000E+00  9.0
       24    2    1    2    0    0 -7.50985078370E+00  5.53927016767E+00 -2.33716002041E+02  2.46858611891E+02  7.89235280646E+01  1.1990E-15  9.0
      -24    2    1    2    0    0  7.50985078370E+00 -5.53927016767E+00  2.14012439461E+02  2.29010687866E+02  8.09783275954E+01  4.3161E-14  9.0
       -1    1    3    3    0  500  2.37424339073E+01 -2.67842739431E+00 -1.94868391953E+02  1.96327703913E+02  0.00000000000E+00  0.0000E+00  9.0
        2    1    3    3  500    0 -3.12522846910E+01  8.21769756198E+00 -3.88476100872E+01  5.05309079783E+01  0.00000000000E+00  0.0000E+00  9.0
        3    1    4    4  504    0  5.11223895112E-01 -3.33198751643E+01  1.85918788104E+02  1.88881632778E+02  0.00000000000E+00  0.0000E+00  9.0
       -4    1    4    4    0  504  6.99862688859E+00  2.77806049966E+01  2.80936513565E+01  4.01290550877E+01  5.87386917370E-01  0.0000E+00  9.0
</event>
<event>
 8    1   5.1859766E+00   4.9340000E+02  -1.0000000E+00   9.3640000E-02
       11   -1    0    0    0    0  0.00000000000E+00  0.00000000000E+00  2.43396014140E+02  2.43396014140E+02  0.00000000000E+00  0.0000E+00  9.0
      -11   -1    0    0    0    0  0.00000000000E+00  0.00000000000E+00 -2.49999999970E+02  2.49999999970E+02  0.00000000000E+00  0.0000E+00  9.0
       24    2    1    2    0    0 -5.33484933929E+01  1.36423619366E+02 -1.84267075071E+02  2.49368465542E+02  8.22970897617E+01  5.7985E-14  9.0
      -24    2    1    2    0    0  5.33484933929E+01 -1.36423619366E+02  1.77663089231E+02  2.44027548564E+02  8.07948359435E+01  3.5230E-14  9.0
       -1    1    3    3    0  500 -6.94463092877E+01  6.89300551876E+01 -1.19527193732E+02  1.54469713612E+02  0.00000000000E+00  0.0000E+00  9.0
        2    1    3    3  500    0  1.60978158948E+01  6.74935641785E+01 -6.47398813383E+01  9.48987519296E+01  0.00000000000E+00  0.0000E+00  9.0
        3    1    4    4  504    0  7.49251183803E+01 -1.00401039332E+02  1.34577368163E+02  1.83861932126E+02  0.00000000000E+00  0.0000E+00  9.0
       -4    1    4    4    0  504 -2.15766249874E+01 -3.60225800339E+01  4.30857210676E+01  6.01656164387E+01  5.87386917370E-01  0.0000E+00  9.0
</event>
<event>
 8    1   5.1859766E+00   5.0000000E+02  -1.0000000E+00   9.3490000E-02
       11   -1    0    0    0    0  0.00000000000E+00  0.00000000000E+00  2.49999949520E+02  2.49999949520E+02  0.00000000000E+00  0.0000E+00  9.0
      -11   -1    0    0    0    0  0.00000000000E+00  0.00000000000E+00 -2.49999653400E+02  2.49999653400E+02  0.00000000000E+00  0.0000E+00  9.0
       24    2    1    2    0    0 -2.68044379404E+01  1.55576195021E+00 -2.35411768525E+02  2.49254800548E+02  7.73844722645E+01  1.1122E-13  9.0
      -24    2    1    2    0    0  2.68044379404E+01 -1.55576195021E+00  2.35412064645E+02  2.50744802366E+02  8.20561846826E+01  1.1902E-13  9.0
       -1    1    3    3    0  500  1.84767680693E+01 -2.55532764140E+00 -1.60818910589E+02  1.61897012513E+02  0.00000000000E+00  0.0000E+00  9.0
        2    1    3    3  500    0 -4.52812060096E+01  4.11108959161E+00 -7.45928579367E+01  8.73577880356E+01  0.00000000000E+00  0.0000E+00  9.0
        1    1    4    4  504    0 -2.63196798120E+01 -1.22605071957E+01  1.16544603679E+02  1.20106994920E+02  0.00000000000E+00  0.0000E+00  9.0
       -2    1    4    4    0  504  5.31241177524E+01  1.07047452455E+01  1.18867460967E+02  1.30637807446E+02  0.00000000000E+00  0.0000E+00  9.0
</event>
<event>
 8    1   5.1859766E+00   4.9980000E+02  -1.0000000E+00   9.3500000E-02
       11   -1    0    0    0    0  0.00000000000E+00  0.00000000000E+00  2.49777695830E+02  2.49777695830E+02  0.00000000000E+00  0.0000E+00  9.0
      -11   -1    0    0    0    0  0.00000000000E+00  0.00000000000E+00 -2.50000000000E+02  2.50000000000E+02  0.00000000000E+00  0.0000E+00  9.0
       24    2    1    2    0    0  4.54200621968E+00  1.26238088099E+02 -1.99847568314E+02  2.49567793810E+02  7.99271445678E+01  4.3789E-14  9.0
      -24    2    1    2    0    0 -4.54200621968E+00 -1.26238088099E+02  1.99625264144E+02  2.50209902017E+02  8.24503746215E+01  8.8415E-14  9.0
       -1    1    3    3    0  500  1.36974981448E+01  1.00609139032E+02 -8.77092709889E+01  1.34174276706E+02  0.00000000000E+00  0.0000E+00  9.0
        2    1    3    3  500    0 -9.15549192516E+00  2.56289490675E+01 -1.12138297325E+02  1.15393517104E+02  0.00000000000E+00  0.0000E+00  9.0
        3    1    4    4  504    0 -1.45553046805E+01 -4.62277902747E+01  1.44813235999E+02  1.52708018154E+02  0.00000000000E+00  0.0000E+00  9.0
       -4    1    4    4    0  504  1.00132984608E+01 -8.00102978245E+01  5.48120281452E+01  9.75018838629E+01  5.87386917370E-01  0.0000E+00  9.0
</event>
<event>
 8    1   5.1859766E+00   4.9860000E+02  -1.0000000E+00   9.3520000E-02
       11   -1    0    0    0    0  0.00000000000E+00  0.00000000000E+00  2.48601117100E+02  2.48601117100E+02  0.00000000000E+00  0.0000E+00  9.0
      -11   -1    0    0    0    0  0.00000000000E+00  0.00000000000E+00 -2.49997696010E+02  2.49997696010E+02  0.00000000000E+00  0.0000E+00  9.0
       24    2    1    2    0    0 -1.89383318270E+02  8.03207652506E+01 -1.16079972204E+02  2.49491599804E+02  8.03369893438E+01  3.8824E-14  9.0
      -24    2    1    2    0    0  1.89383318270E+02 -8.03207652506E+01  1.14683393294E+02  2.49107213302E+02  8.11458960897E+01  4.8549E-14  9.0
      -13    1    3    3    0    0 -8.28477512497E+01 -6.76191949785E+00 -4.77383440953E+01  9.58563201457E+01  1.05700000000E-01  0.0000E+00  9.0
       14    1    3    3    0    0 -1.06535567020E+02  8.70826847484E+01 -6.83416281082E+01  1.53635279659E+02  0.00000000000E+00  0.0000E+00  9.0
        3    1    4    4  500    0  1.73047722217E+02 -6.28182153497E+01  6.72945479545E+01  1.96010710240E+02  0.00000000000E+00  0.0000E+00  9.0
       -4    1    4    4    0  500  1.63355960526E+01 -1.75025499009E+01  4.73888453391E+01  5.30965030617E+01  5.87386917370E-01  0.0000E+00  9.0
</event>
<event>
 8    1   5.1859766E+00   4.9600000E+02  -1.0000000E+00   9.3580000E-02
       11   -1    0    0    0    0  0.00000000000E+00  0.00000000000E+00  2.46587859710E+02  2.46587859710E+02  0.00000000000E+00  0.0000E+00  9.0
      -11   -1    0    0    0    0  0.00000000000E+00  0.00000000000E+00 -2.49407016390E+02  2.49407016390E+02  0.00000000000E+00  0.0000E+00  9.0
       24    2    1    2    0    0  6.55039758177E+01  1.60536980040E+01 -2.26423605737E+02  2.49522586336E+02  8.02831226915E+01  7.7166E-14  9.0
      -24    2    1    2    0    0 -6.55039758177E+01 -1.60536980040E+01  2.23604449057E+02  2.46472289765E+02  7.87473676801E+01  1.5326E-14  9.0
       -1    1    3    3    0  500 -1.19111135987E+01  1.32338092197E+01 -9.75234920811E+01  9.91354620775E+01  0.00000000000E+00  0.0000E+00  9.0
        2    1    3    3  500    0  7.74150894164E+01  2.81988878432E+00 -1.28900113656E+02  1.50387124258E+02  0.00000000000E+00  0.0000E+00  9.0
        3    1    4    4  504    0 -2.14690661068E+01 -2.50771585317E+01  1.82813585637E+02  1.85770266116E+02  0.00000000000E+00  0.0000E+00  9.0
       -4    1    4    4    0  504 -4.40349097109E+01  9.02346052770E+00  4.07908634204E+01  6.07020236493E+01  5.87386917370E-01  0.0000E+00  9.0
</event>
<event>
 8    1   5.1859766E+00   4.8980000E+02  -1.0000000E+00   9.3720000E-02
       11   -1    0    0    0    0  0.00000000000E+00  0.00000000000E+00  2.46679681500E+02  2.46679681500E+02  0.00000000000E+00  0.0000E+00  9.0
      -11   -1    0    0    0    0  0.00000000000E+00  0.00000000000E+00 -2.43150336560E+02  2.43150336560E+02  0.00000000000E+00  0.0000E+00  9.0
       24    2    1    2    0    0  6.66170333317E+00  3.78356380722E+01 -2.26758125619E+02  2.43281474307E+02  7.93140240241E+01  7.8012E-14  9.0
      -24    2    1    2    0    0 -6.66170333317E+00 -3.78356380722E+01  2.30287470559E+02  2.46548543756E+02  7.92335253018E+01  3.0090E-14  9.0
       -3    1    3    3    0  500 -1.81426575063E+01  4.29051907221E+01 -2.03944044091E+02  2.09196521320E+02  0.00000000000E+00  0.0000E+00  9.0
        4    1    3    3  500    0  2.48043608395E+01 -5.06955264988E+00 -2.28140815282E+01  3.40849529865E+01  5.87386917370E-01  0.0000E+00  9.0
       13    1    4    4    0    0 -2.73673173227E+01 -2.27502316582E+00  2.48685740007E+01  3.70486562936E+01  1.05700000000E-01  0.0000E+00  9.0
      -14    1    4    4    0    0  2.07056139895E+01 -3.55606149064E+01  2.05418896559E+02  2.09499887462E+02  0.00000000000E+00  0.0000E+00  9.0
</event>
<event>
 8    1   5.1859766E+00   4.2140000E+02  -1.0000000E+00   9.5420000E-02
       11   -1    0    0    0    0  0.00000000000E+00  0.00000000000E+00  1.78140153910E+02  1.78140153910E+02  0.00000000000E+00  0.0000E+00  9.0
      -11   -1    0    0    0    0  0.00000000000E+00  0.00000000000E+00 -2.49214361370E+02  2.49214361370E+02  0.00000000000E+00  0.0000E+00  9.0
       24    2    1    2    0    0 -1.38253992328E+01  8.76496358717E+01 -2.07285274997E+02  2.40089879302E+02  8.24764486396E+01  4.6428E-14  9.0
      -24    2    1    2    0    0  1.38253992328E+01 -8.76496358717E+01  1.36211067537E+02  1.87264635982E+02  9.29569181786E+01  1.4572E-13  9.0
       -1    1    3    3    0  500 -4.86237772012E+01  4.76312295580E+01 -1.19787322293E+02  1.37775209383E+02  0.00000000000E+00  0.0000E+00  9.0
        2    1    3    3  500    0  3.47983779684E+01  4.00184063137E+01 -8.74979527046E+01  1.02314669919E+02  0.00000000000E+00  0.0000E+00  9.0
        3    1    4    4  504    0  1.19063646981E+01  9.07742877638E+00  6.61236764775E+01  6.77975060339E+01  0.00000000000E+00  0.0000E+00  9.0
       -4    1    4    4    0  504  1.91903453466E+00 -9.67270646481E+01  7.00873910600E+01  1.19467129948E+02  5.87386917370E-01  0.0000E+00  9.0
</event>
<event>
 8    1   5.1859766E+00   4.7280000E+02  -1.0000000E+00   9.4110000E-02
       11   -1    0    0    0    0  0.00000000000E+00  0.00000000000E+00  2.49999999690E+02  2.49999999690E+02  0.00000000000E+00  0.0000E+00  9.0
      -11   -1    0    0    0    0  0.00000000000E+00  0.00000000000E+00 -2.23544638320E+02  2.23544638320E+02  0.00000000000E+00  0.0000E+00  9.0
       24    2    1    2    0    0  2.09491814835E+01  1.66467614158E+01 -2.07858579301E+02  2.24696326469E+02  8.10386776112E+01  2.6775E-13  9.0
      -24    2    1    2    0    0 -2.09491814835E+01 -1.66467614158E+01  2.34313940671E+02  2.48848311542E+02  7.94133269309E+01  1.1529E-13  9.0
       -3    1    3    3    0  500 -6.52050162175E+00  4.51330628576E+01 -1.18165138079E+02  1.26659031109E+02  0.00000000000E+00  0.0000E+00  9.0
        4    1    3    3  500    0  2.74696831052E+01 -2.84863014418E+01 -8.96934412225E+01  9.80372953597E+01  5.87386917370E-01  0.0000E+00  9.0
        3    1    4    4  504    0 -4.21163053599E+01  1.11003725460E+01  8.50021787435E+01  9.55111084585E+01  0.00000000000E+00  0.0000E+00  9.0
       -4    1    4    4    0  504  2.11671238764E+01 -2.77471339618E+01  1.49311761927E+02  1.53337203084E+02  5.87386917370E-01  0.0000E+00  9.0
</event>
<event>
 8    1   5.1859766E+00   4.9810000E+02  -1.0000000E+00   9.3530000E-02
       11   -1    0    0    0    0  0.00000000000E+00  0.00000000000E+00  2.48109098100E+02  2.48109098100E+02  0.00000000000E+00  0.0000E+00  9.0
      -11   -1    0    0    0    0  0.00000000000E+00  0.00000000000E+00 -2.49984416070E+02  2.49984416070E+02  0.00000000000E+00  0.0000E+00  9.0
       24    2    1    2    0    0 -9.39200031358E+01 -2.10557254029E+02 -5.16631666768E+01  2.48971446554E+02  7.85007910475E+01  2.4953E-14  9.0
      -24    2    1    2    0    0  9.39200031358E+01  2.10557254029E+02  4.97878487088E+01  2.49122067602E+02  8.01726292077E+01  1.7540E-14  9.0
       -3    1    3    3    0  500 -3.10840007024E+01 -5.15614203829E+01  2.02200557842E+01  6.35109898166E+01  0.00000000000E+00  0.0000E+00  9.0
        4    1    3    3  500    0 -6.28360024334E+01 -1.58995833646E+02 -7.18832224611E+01  1.85460456738E+02  5.87386917370E-01  0.0000E+00  9.0
       13    1    4    4    0    0 -7.37181213180E+00  1.78871740603E+01 -1.21030004875E+01  2.28207888396E+01  1.05700000000E-01  0.0000E+00  9.0
      -14    1    4    4    0    0  1.01291815268E+02  1.92670079968E+02  6.18908491964E+01  2.26301278762E+02  0.00000000000E+00  0.0000E+00  9.0
</event>
<event>
 8    1   5.1859766E+00   4.9520000E+02  -1.0000000E+00   9.3600000E-02
       11   -1    0    0    0    0  0.00000000000E+00  0.00000000000E+00  2.49747159100E+02  2.49747159100E+02  0.00000000000E+00  0.0000E+00  9.0
      -11   -1    0    0    0    0  0.00000000000E+00  0.00000000000E+00 -2.45496888050E+02  2.45496888050E+02  0.00000000000E+00  0.0000E+00  9.0
       24    2    1    2    0    0 -1.71297748782E+01  4.73735388903E+01 -2.26223651372E+02  2.46459352448E+02  8.38295329491E+01  1.5146E-15  9.0
      -24    2    1    2    0    0  1.71297748782E+01 -4.73735388903E+01  2.30473922432E+02  2.48784694696E+02  7.89804660614E+01  2.2097E-14  9.0
       -3    1    3    3    0  500  3.33516027712E+01  1.19756669628E+01 -6.87598306190E+01  7.73541227949E+01  0.00000000000E+00  0.0000E+00  9.0
        4    1    3    3  500    0 -5.04813776495E+01  3.53978719274E+01 -1.57463820753E+02  1.69105229653E+02  5.87386917370E-01  0.0000E+00  9.0
        1    1    4    4  504    0 -2.93863325952E+01 -3.39865167493E+00  7.78169620352E+01  8.32501468887E+01  0.00000000000E+00  0.0000E+00  9.0
       -2    1    4    4    0  504  4.65161074734E+01 -4.39748872153E+01  1.52656960397E+02  1.65534547807E+02  0.00000000000E+00  0.0000E+00  9.0
</event>
<event>
 8    1   5.1859766E+00   4.8980000E+02  -1.0000000E+00   9.3720000E-02
       11   -1    0    0    0    0  0.00000000000E+00  0.00000000000E+00  2.49943853010E+02  2.49943853010E+02  0.00000000000E+00  0.0000E+00  9.0
      -11   -1    0    0    0    0  0.00000000000E+00  0.00000000000E+00 -2.39984464450E+02  2.39984464450E+02  0.00000000000E+00  0.0000E+00  9.0
       24    2    1    2    0    0  5.76507943683E+00  1.57672003997E+01 -2.25661826286E+02  2.40622158323E+02  8.18163949553E+01  2.0122E-13  9.0
      -24    2    1    2    0    0 -5.76507943683E+00 -1.57672003997E+01  2.35621214846E+02  2.49306159137E+02  7.97142606342E+01  1.7667E-13  9.0
       -1    1    3    3    0  500 -1.02484293184E+01 -1.49370857507E+01 -7.29819771206E+00  1.95297343572E+01  0.00000000000E+00  0.0000E+00  9.0
        2    1    3    3  500    0  1.60135087552E+01  3.07042861504E+01 -2.18363628574E+02  2.21092423965E+02  0.00000000000E+00  0.0000E+00  9.0
        1    1    4    4  504    0  2.16612339974E+01  1.60143565220E+01  3.40880185264E+01  4.34472286821E+01  0.00000000000E+00  0.0000E+00  9.0
       -2    1    4    4    0  504 -2.74263134342E+01 -3.17815569217E+01  2.01533196320E+02  2.05858930455E+02  0.00000000000E+00  0.0000E+00  9.0
</event>
<event>
 8    1   5.1859766E+00   3.8900000E+02  -1.0000000E+00   9.6350000E-02
       11   -1    0    0    0    0  0.00000000000E+00  0.00000000000E+00  1.86338404870E+02  1.86338404870E+02  0.00000000000E+00  0.0000E+00  9.0
      -11   -1    0    0    0    0  0.00000000000E+00  0.00000000000E+00 -2.02984256000E+02  2.02984256000E+02  0.00000000000E+00  0.0000E+00  9.0
       24    2    1    2    0    0 -6.03812279895E+00  3.51248382074E+01 -1.81707352704E+02  2.02001683808E+02  8.07273500669E+01  3.3692E-15  9.0
      -24    2    1    2    0    0  6.03812279895E+00 -3.51248382074E+01  1.65061501574E+02  1.87320977057E+02  8.10779622208E+01  2.1375E-14  9.0
      -13    1    3    3    0    0 -2.21717670660E+01 -6.10445438839E+00 -1.07152095936E+01  2.53708199973E+01  1.05700000000E-01  0.0000E+00  9.0
       14    1    3    3    0    0  1.61336442671E+01  4.12292925958E+01 -1.70992143110E+02  1.76630863811E+02  0.00000000000E+00  0.0000E+00  9.0
        1    1    4    4  500    0  4.15580278737E+01 -5.57238643376E+00  8.77659513846E+01  9.72675865526E+01  0.00000000000E+00  0.0000E+00  9.0
       -2    1    4    4    0  500 -3.55199050747E+01 -2.95524517736E+01  7.72955501891E+01  9.00533905046E+01  0.00000000000E+00  0.0000E+00  9.0
</event>
<event>
 8    1   5.1859766E+00   3.0980000E+02  -1.0000000E+00   9.9110000E-02
       11   -1    0    0    0    0  0.00000000000E+00  0.00000000000E+00  9.59796033780E+01  9.59796033780E+01  0.00000000000E+00  0.0000E+00  9.0
      -11   -1    0    0    0    0  0.00000000000E+00  0.00000000000E+00 -2.49999999880E+02  2.49999999880E+02  0.00000000000E+00  0.0000E+00  9.0
       24    2    1    2    0    0  5.80148290035E-01 -4.05702384746E+01  6.38141421914E+01  1.10511851191E+02  8.05874908916E+01  1.0786E-14  9.0
      -24    2    1    2    0    0 -5.80148290035E-01  4.05702384746E+01 -2.17834538695E+02  2.35467752070E+02  7.96674035863E+01  3.0253E-14  9.0
       -1    1    3    3    0  500 -1.56512692871E+00 -1.62514377054E+01  7.97196920128E+01  8.13743703165E+01  0.00000000000E+00  0.0000E+00  9.0
        2    1    3    3  500    0  2.14527521874E+00 -2.43188007692E+01 -1.59055498213E+01  2.91374808749E+01  0.00000000000E+00  0.0000E+00  9.0
        1    1    4    4  504    0 -1.81488739151E+01  2.71000967047E+01 -2.09164593091E+02  2.11692285804E+02  0.00000000000E+00  0.0000E+00  9.0
       -2    1    4    4    0  504  1.75687256251E+01  1.34701417699E+01 -8.66994560434E+00  2.37754662661E+01  0.00000000000E+00  0.0000E+00  9.0
</event>
<event>
 8    1   5.1859766E+00   4.8050000E+02  -1.0000000E+00   9.3930000E-02
       11   -1    0    0    0    0  0.00000000000E+00  0.00000000000E+00  2.35859066730E+02  2.35859066730E+02  0.00000000000E+00  0.0000E+00  9.0
      -11   -1    0    0    0    0  0.00000000000E+00  0.00000000000E+00 -2.44685508560E+02  2.44685508560E+02  0.00000000000E+00  0.0000E+00  9.0
       24    2    1    2    0    0 -2.01932243216E+02  8.28455248751E+01 -7.36965866263E+01  2.38807510425E+02  6.29112733359E+01  3.0591E-16  9.0
      -24    2    1    2    0    0  2.01932243216E+02 -8.28455248751E+01  6.48701447993E+01  2.41737064869E+02  8.11705673441E+01  8.8923E-14  9.0
       -1    1    3    3    0  500 -1.23701595744E+02  7.77568519481E+01 -6.50484764406E+01  1.59935978134E+02  0.00000000000E+00  0.0000E+00  9.0
        2    1    3    3  500    0 -7.82306474723E+01  5.08867292702E+00 -8.64811018572E+00  7.88715322907E+01  0.00000000000E+00  0.0000E+00  9.0
        3    1    4    4  504    0  1.26226413708E+02 -9.61109586373E+00  2.45463364998E+01  1.28949615419E+02  0.00000000000E+00  0.0000E+00  9.0
       -4    1    4    4    0  504  7.57058295087E+01 -7.32344290114E+01  4.03238082995E+01  1.12787449450E+02  5.87386917370E-01  0.0000E+00  9.0
</event>
<event>
 8    1   5.1859766E+00   3.4840000E+02  -1.0000000E+00   9.7670000E-02
       11   -1    0    0    0    0  0.00000000000E+00  0.00000000000E+00  1.31601160020E+02  1.31601160020E+02  0.00000000000E+00  0.0000E+00  9.0
      -11   -1    0    0    0    0  0.00000000000E+00  0.00000000000E+00 -2.30523684440E+02  2.30523684440E+02  0.00000000000E+00  0.0000E+00  9.0
       24    2    1    2    0    0  8.62055656654E+00  5.35943304886E+01 -1.99281367101E+02  2.21045831182E+02  7.87497933520E+01  5.3899E-14  9.0
      -24    2    1    2    0    0 -8.62055656654E+00 -5.35943304886E+01  1.00358842681E+02  1.41079013268E+02  8.29742395216E+01  3.9348E-13  9.0
       -3    1    3    3    0  500 -1.25439188965E+00  1.88275567473E+00 -1.46423123156E+02  1.46440599776E+02  0.00000000000E+00  0.0000E+00  9.0
        4    1    3    3  500    0  9.87494845619E+00  5.17115748139E+01 -5.28582439453E+01  7.46052314058E+01  5.87386917370E-01  0.0000E+00  9.0
       13    1    4    4    0    0  1.95575481046E+01 -1.35254933381E+01  8.71622428690E+01  9.03476862590E+01  1.05700000000E-01  0.0000E+00  9.0
      -14    1    4    4    0    0 -2.81781046711E+01 -4.00688371505E+01  1.31965998124E+01  5.07313270086E+01  0.00000000000E+00  0.0000E+00  9.0
</event>
<event>
 8    1   5.1859766E+00   3.4120000E+02  -1.0000000E+00   9.7920000E-02
       11   -1    0    0    0    0  0.00000000000E+00  0.00000000000E+00  1.28392234020E+02  1.28392234020E+02  0.00000000000E+00  0.0000E+00  9.0
      -11   -1    0    0    0    0  0.00000000000E+00  0.00000000000E+00 -2.26701353030E+02  2.26701353030E+02  0.00000000000E+00  0.0000E+00  9.0
       24    2    1    2    0    0 -3.54986557180E+00 -5.28050306547E+01  9.79849421059E+01  1.36675597913E+02  7.92350766857E+01  2.7234E-13  9.0
      -24    2    1    2    0    0  3.54986557180E+00  5.28050306547E+01 -1.96294061123E+02  2.18417989140E+02  7.98378778512E+01  2.2362E-13  9.0
       -3    1    3    3    0  500  2.87060312218E+01 -5.59195069353E+01  6.58400685589E+01  9.10271504126E+01  0.00000000000E+00  0.0000E+00  9.0
        4    1    3    3  500    0 -3.22558967936E+01  3.11447628059E+00  3.21448735469E+01  4.56484475005E+01  5.87386917370E-01  0.0000E+00  9.0
        1    1    4    4  504    0  2.10075153539E+01  3.96989785619E+01 -1.90651653433E+02  1.95870818543E+02  0.00000000000E+00  0.0000E+00  9.0
       -2    1    4    4    0  504 -1.74576497821E+01  1.31060520928E+01 -5.64240769026E+00  2.25471705967E+01  0.00000000000E+00  0.0000E+00  9.0
</event>
<event>
 8    1   5.1859766E+00   5.0000000E+02  -1.0000000E+00   9.3490000E-02
       11   -1    0    0    0    0  0.00000000000E+00  0.00000000000E+00  2.49997969360E+02  2.49997969360E+02  0.00000000000E+00  0.0000E+00  9.0
      -11   -1    0    0    0    0  0.00000000000E+00  0.00000000000E+00 -2.49999999180E+02  2.49999999180E+02  0.00000000000E+00  0.0000E+00  9.0
       24    2    1    2    0    0 -5.21548542045E+01  4.36193884429E+01 -2.25804911419E+02  2.51103939483E+02  8.62702181386E+01  1.3473E-14  9.0
      -24    2    1    2    0    0  5.21548542045E+01 -4.36193884429E+01  2.25802881599E+02  2.48894029057E+02  7.96148007371E+01  5.8430E-14  9.0
       -3    1    3    3    0  500 -3.65967560690E+01  5.04093126937E+01 -2.25678681928E+02  2.34118108735E+02  0.00000000000E+00  0.0000E+00  9.0
        4    1    3    3  500    0 -1.55580981355E+01 -6.78992425084E+00 -1.26229491404E-01  1.69858307480E+01  5.87386917370E-01  0.0000E+00  9.0
        3    1    4    4  504    0  2.18229507056E+01 -4.52620580408E+01  2.07340229875E+02  2.13342133674E+02  0.00000000000E+00  0.0000E+00  9.0
       -4    1    4    4    0  504  3.03319034989E+01  1.64266959789E+00  1.84626517236E+01  3.55518953831E+01  5.87386917370E-01  0.0000E+00  9.0
</event>
<event>
 8    1   5.1859766E+00   4.8170000E+02  -1.0000000E+00   9.3900000E-02
       11   -1    0    0    0    0  0.00000000000E+00  0.00000000000E+00  2.32069607520E+02  2.32069607520E+02  0.00000000000E+00  0.0000E+00  9.0
      -11   -1    0    0    0    0  0.00000000000E+00  0.00000000000E+00 -2.49999999880E+02  2.49999999880E+02  0.00000000000E+00  0.0000E+00  9.0
       24    2    1    2    0    0  5.64176844334E+01 -8.60228975672E+01 -2.12122558734E+02  2.49544284178E+02  8.18136652357E+01  1.5117E-14  9.0
      -24    2    1    2    0    0 -5.64176844334E+01  8.60228975672E+01  1.94192166374E+02  2.32525323217E+02  7.59903575029E+01  1.6483E-13  9.0
       -1    1    3    3    0  500  7.50463057995E+01 -6.18329769502E+01 -1.83612538469E+02  2.07771098412E+02  0.00000000000E+00  0.0000E+00  9.0
        2    1    3    3  500    0 -1.86286213660E+01 -2.41899206170E+01 -2.85100202658E+01  4.17731857657E+01  0.00000000000E+00  0.0000E+00  9.0
       13    1    4    4    0    0 -1.28938836089E+01  1.86369105387E+01  2.68308313170E-01  2.26642853580E+01  1.05700000000E-01  0.0000E+00  9.0
      -14    1    4    4    0    0 -4.35238008245E+01  6.73859870285E+01  1.93923858061E+02  2.09861037859E+02  0.00000000000E+00  0.0000E+00  9.0
</event>
<event>
 8    1   5.1859766E+00   4.8550000E+02  -1.0000000E+00   9.3820000E-02
       11   -1    0    0    0    0  0.00000000000E+00  0.00000000000E+00  2.37400708990E+02  2.37400708990E+02  0.00000000000E+00  0.0000E+00  9.0
      -11   -1    0    0    0    0  0.00000000000E+00  0.00000000000E+00 -2.48252008700E+02  2.48252008700E+02  0.00000000000E+00  0.0000E+00  9.0
       24    2    1    2    0    0 -1.84068658152E+01  1.06091970007E+01 -2.33616874715E+02  2.48060607584E+02  8.06588687816E+01  2.9237E-14  9.0
      -24    2    1    2    0    0  1.84068658152E+01 -1.06091970007E+01  2.22765574995E+02  2.37592110102E+02  7.98382214854E+01  1.2806E-13  9.0
       -1    1    3    3    0  500 -3.28445962457E+01 -2.70394777618E+01 -1.05748640017E+02  1.13985418917E+02  0.00000000000E+00  0.0000E+00  9.0
        2    1    3    3  500    0  1.44377304305E+01  3.76486747625E+01 -1.27868234697E+02  1.34075188666E+02  0.00000000000E+00  0.0000E+00  9.0
        1    1    4    4  504    0 -1.87425613882E+01 -3.37782096655E+01  1.12795611182E+02  1.19227098252E+02  0.00000000000E+00  0.0000E+00  9.0
       -2    1    4    4    0  504  3.71494272034E+01  2.31690126648E+01  1.09969963812E+02  1.18365011850E+02  0.00000000000E+00  0.0000E+00  9.0
</event>
<event>
 8    1   5.1859766E+00   4.9990000E+02  -1.0000000E+00   9.3490000E-02
       11   -1    0    0    0    0  0.00000000000E+00  0.00000000000E+00  2.50000000000E+02  2.50000000000E+02  0.00000000000E+00  0.0000E+00  9.0
      -11   -1    0    0    0    0  0.00000000000E+00  0.00000000000E+00 -2.49940166020E+02  2.49940166020E+02  0.00000000000E+00  0.0000E+00  9.0
       24    2    1    2    0    0  2.06850256413E+01  1.22281768128E+02 -2.00897045238E+02  2.50248252694E+02  8.29690550090E+01  2.9286E-14  9.0
      -24    2    1    2    0    0 -2.06850256413E+01 -1.22281768128E+02  2.00956879218E+02  2.49691913332E+02  8.11275734633E+01  9.3359E-14  9.0
       -3    1    3    3    0  500  1.57318292856E+01  1.12686084546E+01  1.43915018286E+00  1.94047195914E+01  0.00000000000E+00  0.0000E+00  9.0
        4    1    3    3  500    0  4.95319635576E+00  1.11013159673E+02 -2.02336195421E+02  2.30843533103E+02  5.87386917370E-01  0.0000E+00  9.0
        3    1    4    4  504    0 -4.38772429798E+01 -8.10087115555E+01  8.88276948284E+01  1.27976494591E+02  0.00000000000E+00  0.0000E+00  9.0
       -4    1    4    4    0  504  2.31922173385E+01 -4.12730565724E+01  1.12129184389E+02  1.21715418740E+02  5.87386917370E-01  0.0000E+00  9.0
</event>
<event>
 8    1   5.1859766E+00   4.6670000E+02  -1.0000000E+00   9.4260000E-02
       11   -1    0    0    0    0  0.00000000000E+00  0.00000000000E+00  2.17882944520E+02  2.17882944520E+02  0.00000000000E+00  0.0000E+00  9.0
      -11   -1    0    0    0    0  0.00000000000E+00  0.00000000000E+00 -2.49868830790E+02  2.49868830790E+02  0.00000000000E+00  0.0000E+00  9.0
       24    2    1    2    0    0 -4.43153332325E+01 -8.43578523467E+01 -2.13681658819E+02  2.47693080505E+02  8.13136815205E+01  2.0766E-14  9.0
      -24    2    1    2    0    0  4.43153332325E+01  8.43578523467E+01  1.81695772549E+02  2.20058694815E+02  7.95762489026E+01  6.5276E-14  9.0
       -1    1    3    3    0  500 -5.66502976240E+01 -7.12445561598E+01 -1.11487811088E+02  1.43925588498E+02  0.00000000000E+00  0.0000E+00  9.0
        2    1    3    3  500    0  1.23349643914E+01 -1.31132961870E+01 -1.02193847730E+02  1.03767492007E+02  0.00000000000E+00  0.0000E+00  9.0
        1    1    4    4  504    0  5.56053936920E+01  6.75859255805E+01  1.79527764237E+02  1.99724898989E+02  0.00000000000E+00  0.0000E+00  9.0
       -2    1    4    4    0  504 -1.12900604594E+01  1.67719267662E+01  2.16800831131E+00  2.03337958254E+01  0.00000000000E+00  0.0000E+00  9.0
</event>
<event>
 8    1   5.1859766E+00   5.0000000E+02  -1.0000000E+00   9.3490000E-02
       11   -1    0    0    0    0  0.00000000000E+00  0.00000000000E+00  2.49998349190E+02  2.49998349190E+02  0.00000000000E+00  0.0000E+00  9.0
      -11   -1    0    0    0    0  0.00000000000E+00  0.00000000000E+00 -2.50000000000E+02  2.50000000000E+02  0.00000000000E+00  0.0000E+00  9.0
       24    2    1    2    0    0 -1.26042029385E+01 -2.97878514317E+01 -2.33163305255E+02  2.51341314393E+02  8.80973744145E+01  3.5034E-14  9.0
      -24    2    1    2    0    0  1.26042029385E+01  2.97878514317E+01  2.33161654445E+02  2.48657034798E+02  8.01235410252E+01  6.0150E-15  9.0
       -3    1    3    3    0  500 -4.62282961826E+00 -2.69233805372E+00  7.39634899815E+00  9.12826469694E+00  0.00000000000E+00  0.0000E+00  9.0
        4    1    3    3  500    0 -7.98137332024E+00 -2.70955133780E+01 -2.40559654253E+02  2.42213049696E+02  5.87386917370E-01  0.0000E+00  9.0
        3    1    4    4  504    0 -2.63842548890E+01 -1.06373470863E+00  3.22348532701E+01  4.16694876729E+01  0.00000000000E+00  0.0000E+00  9.0
       -4    1    4    4    0  504  3.89884578275E+01  3.08515861404E+01  2.00926801174E+02  2.06987547125E+02  5.87386917370E-01  0.0000E+00  9.0
</event>
<event>
 8    1   5.1859766E+00   5.0000000E+02  -1.0000000E+00   9.3490000E-02
       11   -1    0    0    0    0  0.00000000000E+00  0.00000000000E+00  2.49999919920E+02  2.49999919920E+02  0.00000000000E+00  0.0000E+00  9.0
      -11   -1    0    0    0    0  0.00000000000E+00  0.00000000000E+00 -2.50000000000E+02  2.50000000000E+02  0.00000000000E+00  0.0000E+00  9.0
       24    2    1    2    0    0 -2.71830090906E+01  8.20424921514E+00 -2.35574994915E+02  2.50042736805E+02  7.88642270722E+01  4.1166E-14  9.0
      -24    2    1    2    0    0  2.71830090906E+01 -8.20424921514E+00  2.35574914835E+02  2.49957183112E+02  7.85927935715E+01  1.9065E-14  9.0
       -1    1    3    3    0  500 -3.41416385467E+01  2.54438188036E+01 -2.24287325649E+02  2.28293328516E+02  0.00000000000E+00  0.0000E+00  9.0
        2    1    3    3  500    0  6.95862945612E+00 -1.72395695884E+01 -1.12876692655E+01  2.17494082896E+01  0.00000000000E+00  0.0000E+00  9.0
        1    1    4    4  504    0  2.31364665557E+01 -4.10082951739E+01  1.01833038378E+02  1.12191550765E+02  0.00000000000E+00  0.0000E+00  9.0
       -2    1    4    4    0  504  4.04654253482E+00  3.28040459587E+01  1.33741876456E+02  1.37765632346E+02  0.00000000000E+00  0.0000E+00  9.0
</event>
<event>
 8    1   5.1859766E+00   5.0000000E+02  -1.0000000E+00   9.3490000E-02
       11   -1    0    0    0    0  0.00000000000E+00  0.00000000000E+00  2.49999924790E+02  2.49999924790E+02  0.00000000000E+00  0.0000E+00  9.0
      -11   -1    0    0    0    0  0.00000000000E+00  0.00000000000E+00 -2.49999963450E+02  2.49999963450E+02  0.00000000000E+00  0.0000E+00  9.0
       24    2    1    2    0    0  4.81089407943E+00  3.66165096014E+00 -2.37595892837E+02  2.50239505750E+02  7.83035730682E+01  1.4613E-14  9.0
      -24    2    1    2    0    0 -4.81089407943E+00 -3.66165096014E+00  2.37595854177E+02  2.49760382497E+02  7.67587542457E+01  9.1621E-15  9.0
       -3    1    3    3    0  500  3.66332497221E+01  2.08916725369E+01 -1.36089302114E+02  1.42473699736E+02  0.00000000000E+00  0.0000E+00  9.0
        4    1    3    3  500    0 -3.18223556426E+01 -1.72300215768E+01 -1.01506590723E+02  1.07765806014E+02  5.87386917370E-01  0.0000E+00  9.0
        3    1    4    4  504    0  2.42314590243E+01 -2.74067049189E+01  1.51329940772E+02  1.55688927207E+02  0.00000000000E+00  0.0000E+00  9.0
       -4    1    4    4    0  504 -2.90423531037E+01  2.37450539588E+01  8.62659134053E+01  9.40714552899E+01  5.87386917370E-01  0.0000E+00  9.0
</event>
<event>
 8    1   5.1859766E+00   3.6280000E+02  -1.0000000E+00   9.7180000E-02
       11   -1    0    0    0    0  0.00000000000E+00  0.00000000000E+00  1.31607233680E+02  1.31607233680E+02  0.00000000000E+00  0.0000E+00  9.0
      -11   -1    0    0    0    0  0.00000000000E+00  0.00000000000E+00 -2.50000000000E+02  2.50000000000E+02  0.00000000000E+00  0.0000E+00  9.0
       24    2    1    2    0    0 -3.35036644544E+01  1.83798462130E+01 -2.25780187591E+02  2.42316600831E+02  7.92485182913E+01  3.6829E-14  9.0
      -24    2    1    2    0    0  3.35036644544E+01 -1.83798462130E+01  1.07387421271E+02  1.39290632848E+02  8.00594021550E+01  8.2911E-14  9.0
       -3    1    3    3    0  500 -1.62900447730E+01 -7.92006013419E+00 -4.30054000315E+00  1.86168621296E+01  0.00000000000E+00  0.0000E+00  9.0
        4    1    3    3  500    0 -1.72136196814E+01  2.62999063472E+01 -2.21479647587E+02  2.23699738702E+02  5.87386917370E-01  0.0000E+00  9.0
        3    1    4    4  504    0 -2.63961861005E+01 -6.62379902312E+00  2.68305374238E+01  3.82166337162E+01  0.00000000000E+00  0.0000E+00  9.0
       -4    1    4    4    0  504  5.98998505549E+01 -1.17560471899E+01  8.05568838468E+01  1.01073999132E+02  5.87386917370E-01  0.0000E+00  9.0
</event>
<event>
 8    1   5.1859766E+00   4.9890000E+02  -1.0000000E+00   9.3510000E-02
       11   -1    0    0    0    0  0.00000000000E+00  0.00000000000E+00  2.48951118130E+02  2.48951118130E+02  0.00000000000E+00  0.0000E+00  9.0
      -11   -1    0    0    0    0  0.00000000000E+00  0.00000000000E+00 -2.49999981890E+02  2.49999981890E+02  0.00000000000E+00  0.0000E+00  9.0
       24    2    1    2    0    0  6.66477481965E+01  7.69436220176E+00 -2.27115619274E+02  2.49821687398E+02  7.95502698106E+01  3.1432E-14  9.0
      -24    2    1    2    0    0 -6.66477481965E+01 -7.69436220176E+00  2.26066755514E+02  2.49129412622E+02  8.03626824808E+01  1.7118E-13  9.0
      -13    1    3    3    0    0  6.29061826141E+01 -2.03479359772E+01 -1.99960355541E+02  2.10607172884E+02  1.05700000000E-01  0.0000E+00  9.0
       14    1    3    3    0    0  3.74156558238E+00  2.80422981790E+01 -2.71552637323E+01  3.92145145136E+01  0.00000000000E+00  0.0000E+00  9.0
        3    1    4    4  500    0 -7.80627341028E+01 -1.60219471364E+00  2.22340846581E+02  2.35651882110E+02  0.00000000000E+00  0.0000E+00  9.0
       -4    1    4    4    0  500  1.14149859063E+01 -6.09216748813E+00  3.72590893278E+00  1.34775305123E+01  5.87386917370E-01  0.0000E+00  9.0
</event>
<event>
 8    1   5.1859766E+00   4.3390000E+02  -1.0000000E+00   9.5090000E-02
       11   -1    0    0    0    0  0.00000000000E+00  0.00000000000E+00  2.40000820690E+02  2.40000820690E+02  0.00000000000E+00  0.0000E+00  9.0
      -11   -1    0    0    0    0  0.00000000000E+00  0.00000000000E+00 -1.96126000420E+02  1.96126000420E+02  0.00000000000E+00  0.0000E+00  9.0
       24    2    1    2    0    0 -4.59794817333E+00 -1.26702968602E+01 -1.80235212371E+02  1.97257062653E+02  7.90186018471E+01  1.0713E-13  9.0
      -24    2    1    2    0    0  4.59794817333E+00  1.26702968602E+01  2.24110032641E+02  2.38869758457E+02  8.15584282884E+01  4.5159E-14  9.0
       -1    1    3    3    0  500  1.44792787760E+01  5.22665452189E+00 -1.67424175145E+02  1.68130371600E+02  0.00000000000E+00  0.0000E+00  9.0
        2    1    3    3  500    0 -1.90772269494E+01 -1.78969513821E+01 -1.28110372260E+01  2.91266910523E+01  0.00000000000E+00  0.0000E+00  9.0
        1    1    4    4  504    0 -9.51507361858E+00  3.92188954133E+01  6.18787026071E+01  7.38757891311E+01  0.00000000000E+00  0.0000E+00  9.0
       -2    1    4    4    0  504  1.41130217919E+01 -2.65485985531E+01  1.62231330034E+02  1.64993969326E+02  0.00000000000E+00  0.0000E+00  9.0
</event>
<event>
 8    1   5.1859766E+00   4.6800000E+02  -1.0000000E+00   9.4230000E-02
       11   -1    0    0    0    0  0.00000000000E+00  0.00000000000E+00  2.49604555590E+02  2.49604555590E+02  0.00000000000E+00  0.0000E+00  9.0
      -11   -1    0    0    0    0  0.00000000000E+00  0.00000000000E+00 -2.19366728550E+02  2.19366728550E+02  0.00000000000E+00  0.0000E+00  9.0
       24    2    1    2    0    0  1.19687132835E+01 -5.08478868712E+00 -2.04711914102E+02  2.20410923673E+02  8.06529746847E+01  1.3346E-13  9.0
      -24    2    1    2    0    0 -1.19687132835E+01  5.08478868712E+00  2.34949741152E+02  2.48560360471E+02  8.00735084571E+01  6.2090E-15  9.0
       -3    1    3    3    0  500 -8.52408676274E+00  2.53000234601E+00  4.56458366697E+00  9.99481821057E+00  0.00000000000E+00  0.0000E+00  9.0
        4    1    3    3  500    0  2.04928000463E+01 -7.61479103314E+00 -2.09276497769E+02  2.10416105462E+02  5.87386917370E-01  0.0000E+00  9.0
        1    1    4    4  504    0  3.04325387177E+01 -9.12360305869E+00  5.89265291568E+01  6.69456151219E+01  0.00000000000E+00  0.0000E+00  9.0
       -2    1    4    4    0  504 -4.24012520012E+01  1.42083917458E+01  1.76023211995E+02  1.81614745349E+02  0.00000000000E+00  0.0000E+00  9.0
</event>
<event>
 8    1   5.1859766E+00   4.9730000E+02  -1.0000000E+00   9.3550000E-02
       11   -1    0    0    0    0  0.00000000000E+00  0.00000000000E+00  2.49680597470E+02  2.49680597470E+02  0.00000000000E+00  0.0000E+00  9.0
      -11   -1    0    0    0    0  0.00000000000E+00  0.00000000000E+00 -2.47666207380E+02  2.47666207380E+02  0.00000000000E+00  0.0000E+00  9.0
       24    2    1    2    0    0 -3.66444777818E+00 -2.24440909903E+01 -2.33340436568E+02  2.47499007801E+02  7.93147787399E+01  7.4078E-14  9.0
      -24    2    1    2    0    0  3.66444777818E+00  2.24440909903E+01  2.35354826658E+02  2.49847797045E+02  8.07146941951E+01  1.0890E-13  9.0
       -1    1    3    3    0  500 -9.35433338876E+00  2.45179822401E+01 -1.44356116978E+02  1.46721925816E+02  0.00000000000E+00  0.0000E+00  9.0
        2    1    3    3  500    0  5.68988561058E+00 -4.69620732304E+01 -8.89843195908E+01  1.00777081985E+02  0.00000000000E+00  0.0000E+00  9.0
        3    1    4    4  504    0 -3.23636566613E+01 -7.30125669134E+00  1.36981986627E+02  1.40942467986E+02  0.00000000000E+00  0.0000E+00  9.0
       -4    1    4    4    0  504  3.60281044395E+01  2.97453476816E+01  9.83728400315E+01  1.08905329059E+02  5.87386917370E-01  0.0000E+00  9.0
</event>
<event>
 8    1   5.1859766E+00   4.9720000E+02  -1.0000000E+00   9.3550000E-02
       11   -1    0    0    0    0  0.00000000000E+00  0.00000000000E+00  2.50000000000E+02  2.50000000000E+02  0.00000000000E+00  0.0000E+00  9.0
      -11   -1    0    0    0    0  0.00000000000E+00  0.00000000000E+00 -2.47209521650E+02  2.47209521650E+02  0.00000000000E+00  0.0000E+00  9.0
       24    2    1    2    0    0  1.07149113552E+02  1.32769116612E+02 -1.61322230015E+02  2.47260652305E+02  7.74880469503E+01  4.0623E-15  9.0
      -24    2    1    2    0    0 -1.07149113552E+02 -1.32769116612E+02  1.64112708365E+02  2.49948869336E+02  8.02052702419E+01  2.0350E-13  9.0
       -1    1    3    3    0  500  9.10326124545E+01  6.20994172650E+01 -1.23450983547E+02  1.65479362742E+02  0.00000000000E+00  0.0000E+00  9.0
        2    1    3    3  500    0  1.61165010977E+01  7.06696993468E+01 -3.78712464682E+01  8.17812895622E+01  0.00000000000E+00  0.0000E+00  9.0
        1    1    4    4  504    0 -8.61087821944E+01 -4.39084006792E+01  9.39025648426E+01  1.34760386261E+02  0.00000000000E+00  0.0000E+00  9.0
       -2    1    4    4    0  504 -2.10403313579E+01 -8.88607159325E+01  7.02101435225E+01  1.15188483075E+02  0.00000000000E+00  0.0000E+00  9.0
</event>
<event>
 8    1   5.1859766E+00   4.9310000E+02  -1.0000000E+00   9.3650000E-02
       11   -1    0    0    0    0  0.00000000000E+00  0.00000000000E+00  2.48113608580E+02  2.48113608580E+02  0.00000000000E+00  0.0000E+00  9.0
      -11   -1    0    0    0    0  0.00000000000E+00  0.00000000000E+00 -2.44974217750E+02  2.44974217750E+02  0.00000000000E+00  0.0000E+00  9.0
       24    2    1    2    0    0 -2.24484040848E+02  2.33545823889E+01  5.89799329874E+01  2.46780446887E+02  8.05197823919E+01  1.2668E-14  9.0
      -24    2    1    2    0    0  2.24484040848E+02 -2.33545823889E+01 -5.58405421544E+01  2.46307379439E+02  8.13058294595E+01  1.5613E-13  9.0
       -1    1    3    3    0  500 -7.13770113421E+01 -1.40173050434E+01  5.12638504042E+01  8.89895777441E+01  0.00000000000E+00  0.0000E+00  9.0
        2    1    3    3  500    0 -1.53107029506E+02  3.73718874324E+01  7.71608258323E+00  1.57790869143E+02  0.00000000000E+00  0.0000E+00  9.0
        3    1    4    4  504    0  2.27051162228E+02 -1.72691537760E+01 -6.32854769337E+01  2.36337693845E+02  0.00000000000E+00  0.0000E+00  9.0
       -4    1    4    4    0  504 -2.56712138030E+00 -6.08542861292E+00  7.44493477928E+00  9.96968559397E+00  5.87386917370E-01  0.0000E+00  9.0
</event>
<event>
 8    1   5.1859766E+00   4.9970000E+02  -1.0000000E+00   9.3500000E-02
       11   -1    0    0    0    0  0.00000000000E+00  0.00000000000E+00  2.49807418970E+02  2.49807418970E+02  0.00000000000E+00  0.0000E+00  9.0
      -11   -1    0    0    0    0  0.00000000000E+00  0.00000000000E+00 -2.49919086370E+02  2.49919086370E+02  0.00000000000E+00  0.0000E+00  9.0
       24    2    1    2    0    0  1.01319852369E+01 -6.26255353974E+00 -2.36396607659E+02  2.49828498089E+02  7.99315059461E+01  8.4042E-14  9.0
      -24    2    1    2    0    0 -1.01319852369E+01  6.26255353974E+00  2.36284940259E+02  2.49898007244E+02  8.04771043827E+01  1.4999E-14  9.0
       -3    1    3    3    0  500 -8.10572712337E+00  3.44840314580E+01 -8.80287214193E+01  9.48889194401E+01  0.00000000000E+00  0.0000E+00  9.0
        4    1    3    3  500    0  1.82377123603E+01 -4.07465849978E+01 -1.48367886240E+02  1.54939578649E+02  5.87386917370E-01  0.0000E+00  9.0
        3    1    4    4  504    0 -4.34088674654E+01  1.56081968274E+01  1.19134359867E+02  1.27753439420E+02  0.00000000000E+00  0.0000E+00  9.0
       -4    1    4    4    0  504  3.32768822285E+01 -9.34564328762E+00  1.17150580392E+02  1.22144567824E+02  5.87386917370E-01  0.0000E+00  9.0
</event>
<event>
 8    1   5.1859766E+00   5.0000000E+02  -1.0000000E+00   9.3490000E-02
       11   -1    0    0    0    0  0.00000000000E+00  0.00000000000E+00  2.50000000000E+02  2.50000000000E+02  0.00000000000E+00  0.0000E+00  9.0
      -11   -1    0    0    0    0  0.00000000000E+00  0.00000000000E+00 -2.49999983480E+02  2.49999983480E+02  0.00000000000E+00  0.0000E+00  9.0
       24    2    1    2    0    0  1.60676876800E+02 -1.05536420042E+02 -1.37612632410E+02  2.49834256673E+02  8.07770048660E+01  7.0511E-14  9.0
      -24    2    1    2    0    0 -1.60676876800E+02  1.05536420042E+02  1.37612648930E+02  2.50165726801E+02  8.17964242923E+01  4.8162E-15  9.0
       -1    1    3    3    0  500  4.02648708073E+01 -6.89423413431E+01 -3.38271804239E+01  8.67097709974E+01  0.00000000000E+00  0.0000E+00  9.0
        2    1    3    3  500    0  1.20412005993E+02 -3.65940786991E+01 -1.03785451986E+02  1.63124485676E+02  0.00000000000E+00  0.0000E+00  9.0
        3    1    4    4  504    0 -1.15681483710E+02  1.13120616843E+02  9.44239693022E+01  1.87334902266E+02  0.00000000000E+00  0.0000E+00  9.0
       -4    1    4    4    0  504 -4.49953930902E+01 -7.58419680031E+00  4.31886796277E+01  6.28308245356E+01  5.87386917370E-01  0.0000E+00  9.0
</event>
<event>
 8    1   5.1859766E+00   4.6480000E+02  -1.0000000E+00   9.4310000E-02
       11   -1    0    0    0    0  0.00000000000E+00  0.00000000000E+00  2.48680183510E+02  2.48680183510E+02  0.00000000000E+00  0.0000E+00  9.0
      -11   -1    0    0    0    0  0.00000000000E+00  0.00000000000E+00 -2.17159445300E+02  2.17159445300E+02  0.00000000000E+00  0.0000E+00  9.0
       24    2    1    2    0    0 -5.05024591763E+00 -2.15223028725E+02 -2.11615743107E+01  2.30133039496E+02  7.85299087141E+01  7.5186E-14  9.0
      -24    2    1    2    0    0  5.05024591763E+00  2.15223028725E+02  5.26823125177E+01  2.35706589316E+02  8.02228964647E+01  1.0210E-13  9.0
      -13    1    3    3    0    0 -2.35932773612E+01 -6.34383660568E+01  2.21302650970E+01  7.12097523542E+01  1.05700000000E-01  0.0000E+00  9.0
       14    1    3    3    0    0  1.85430314435E+01 -1.51784662669E+02 -4.32918394077E+01  1.58923287142E+02  0.00000000000E+00  0.0000E+00  9.0
        1    1    4    4  500    0 -1.12752873271E+00  2.21132764095E+02  4.96978646217E+01  2.26651380814E+02  0.00000000000E+00  0.0000E+00  9.0
       -2    1    4    4    0  500  6.17777465035E+00 -5.90973536908E+00  2.98444789606E+00  9.05520850159E+00  0.00000000000E+00  0.0000E+00  9.0
</event>
<event>
 8    1   5.1859766E+00   4.8450000E+02  -1.0000000E+00   9.3840000E-02
       11   -1    0    0    0    0  0.00000000000E+00  0.00000000000E+00  2.34720513790E+02  2.34720513790E+02  0.00000000000E+00  0.0000E+00  9.0
      -11   -1    0    0    0    0  0.00000000000E+00  0.00000000000E+00 -2.49999665490E+02  2.49999665490E+02  0.00000000000E+00  0.0000E+00  9.0
       24    2    1    2    0    0  6.44421931700E+00  2.44178592786E+01 -2.36580417308E+02  2.47825961327E+02  6.93516650101E+01  1.8177E-14  9.0
      -24    2    1    2    0    0 -6.44421931700E+00 -2.44178592786E+01  2.21301265608E+02  2.36894217952E+02  8.06651134319E+01  2.0401E-13  9.0
       -3    1    3    3    0  500  1.61844758731E+01 -1.97675007144E+01 -5.42522433017E+01  5.99666344482E+01  0.00000000000E+00  0.0000E+00  9.0
        4    1    3    3  500    0 -9.74025655605E+00  4.41853599930E+01 -1.82328174007E+02  1.87859326879E+02  5.87386917370E-01  0.0000E+00  9.0
        1    1    4    4  504    0  1.22988921798E+01 -2.85635775479E+01  2.14170267878E+02  2.16416368036E+02  0.00000000000E+00  0.0000E+00  9.0
       -2    1    4    4    0  504 -1.87431114968E+01  4.14571826925E+00  7.13099773080E+00  2.04778499161E+01  0.00000000000E+00  0.0000E+00  9.0
</event>
<event>
 8    1   5.1859766E+00   4.7880000E+02  -1.0000000E+00   9.3970000E-02
       11   -1    0    0    0    0  0.00000000000E+00  0.00000000000E+00  2.49999999990E+02  2.49999999990E+02  0.00000000000E+00  0.0000E+00  9.0
      -11   -1    0    0    0    0  0.00000000000E+00  0.00000000000E+00 -2.29257833920E+02  2.29257833920E+02  0.00000000000E+00  0.0000E+00  9.0
       24    2    1    2    0    0 -8.37939264817E+01 -2.09338573258E+02 -2.92187040848E+01  2.41150874135E+02  8.03489331526E+01  9.2707E-14  9.0
      -24    2    1    2    0    0  8.37939264817E+01  2.09338573258E+02  4.99608701538E+01  2.38106959787E+02  5.79204228527E+01  1.7718E-13  9.0
       -1    1    3    3    0  500 -7.56323978953E+00 -4.76313815924E+01 -3.91244418793E+01  6.21021180064E+01  0.00000000000E+00  0.0000E+00  9.0
        2    1    3    3  500    0 -7.62306866922E+01 -1.61707191665E+02  9.90573779457E+00  1.79048756128E+02  0.00000000000E+00  0.0000E+00  9.0
        1    1    4    4  504    0  5.37173635244E+01  1.83142021132E+02  2.89969345509E+01  1.93047603615E+02  0.00000000000E+00  0.0000E+00  9.0
       -2    1    4    4    0  504  3.00765629573E+01  2.61965521263E+01  2.09639356029E+01  4.50593561715E+01  0.00000000000E+00  0.0000E+00  9.0
</event>
<event>
 8    1   5.1859766E+00   4.7870000E+02  -1.0000000E+00   9.3980000E-02
       11   -1    0    0    0    0  0.00000000000E+00  0.00000000000E+00  2.45947026670E+02  2.45947026670E+02  0.00000000000E+00  0.0000E+00  9.0
      -11   -1    0    0    0    0  0.00000000000E+00  0.00000000000E+00 -2.32895985550E+02  2.32895985550E+02  0.00000000000E+00  0.0000E+00  9.0
       24    2    1    2    0    0 -5.99936096967E+01 -5.47425382237E+01 -2.04799321965E+02  2.33824530625E+02  7.83273269610E+01  6.7927E-14  9.0
      -24    2    1    2    0    0  5.99936096967E+01  5.47425382237E+01  2.17850363075E+02  2.45018481598E+02  7.73259137474E+01  3.9604E-13  9.0
       -1    1    3    3    0  500 -1.36236722732E+01 -6.22637374841E+01 -9.50202598716E+01  1.14416901015E+02  0.00000000000E+00  0.0000E+00  9.0
        2    1    3    3  500    0 -4.63699374235E+01  7.52119926049E+00 -1.09779062094E+02  1.19407629610E+02  0.00000000000E+00  0.0000E+00  9.0
        1    1    4    4  504    0  6.69225128891E+00 -1.69097143724E+01  1.57161179609E+01  2.40358280746E+01  0.00000000000E+00  0.0000E+00  9.0
       -2    1    4    4    0  504  5.33013584078E+01  7.16522525961E+01  2.02134245114E+02  2.20982653523E+02  0.00000000000E+00  0.0000E+00  9.0
</event>
<event>
 8    1   5.1859766E+00   4.9980000E+02  -1.0000000E+00   9.3500000E-02
       11   -1    0    0    0    0  0.00000000000E+00  0.00000000000E+00  2.49773270340E+02  2.49773270340E+02  0.00000000000E+00  0.0000E+00  9.0
      -11   -1    0    0    0    0  0.00000000000E+00  0.00000000000E+00 -2.50000000000E+02  2.50000000000E+02  0.00000000000E+00  0.0000E+00  9.0
       24    2    1    2    0    0 -4.76350458019E+01  1.07655613887E+02 -2.08776088899E+02  2.53034035466E+02  8.11168232750E+01  2.7530E-14  9.0
      -24    2    1    2    0    0  4.76350458019E+01 -1.07655613887E+02  2.08549359239E+02  2.46739234876E+02  5.94019023082E+01  9.2407E-14  9.0
       -3    1    3    3    0  500  4.89724379765E+00  7.57687186732E+01 -1.49370149654E+02  1.67559909685E+02  0.00000000000E+00  0.0000E+00  9.0
        4    1    3    3  500    0 -5.25322895995E+01  3.18868952142E+01 -5.94059392457E+01  8.54741257810E+01  5.87386917370E-01  0.0000E+00  9.0
        1    1    4    4  504    0  5.52312372907E+01 -5.59561213313E+01  1.10233002362E+02  1.35399009955E+02  0.00000000000E+00  0.0000E+00  9.0
       -2    1    4    4    0  504 -7.59619148876E+00 -5.16994925561E+01  9.83163568778E+01  1.11340224921E+02  0.00000000000E+00  0.0000E+00  9.0
</event>
<event>
 8    1   5.1859766E+00   5.0000000E+02  -1.0000000E+00   9.3490000E-02
       11   -1    0    0    0    0  0.00000000000E+00  0.00000000000E+00  2.50000000000E+02  2.50000000000E+02  0.00000000000E+00  0.0000E+00  9.0
      -11   -1    0    0    0    0  0.00000000000E+00  0.00000000000E+00 -2.49999391820E+02  2.49999391820E+02  0.00000000000E+00  0.0000E+00  9.0
       24    2    1    2    0    0 -1.95099617486E+02  2.56866034565E+01 -1.29360220530E+02  2.50905853607E+02  8.65795494215E+01  4.2977E-14  9.0
      -24    2    1    2    0    0  1.95099617486E+02 -2.56866034565E+01  1.29360828720E+02  2.49093538213E+02  8.11769944753E+01  8.4260E-14  9.0
       -1    1    3    3    0  500 -1.44865402878E+01 -2.36294990380E+01 -1.49602093135E+01  3.14963638695E+01  0.00000000000E+00  0.0000E+00  9.0
        2    1    3    3  500    0 -1.80613077198E+02  4.93161024944E+01 -1.14400011217E+02  2.19409489737E+02  0.00000000000E+00  0.0000E+00  9.0
        1    1    4    4  504    0  1.08994721541E+02 -5.25730713808E+01  8.92959926068E+01  1.50391327722E+02  0.00000000000E+00  0.0000E+00  9.0
       -2    1    4    4    0  504  8.61048959447E+01  2.68864679243E+01  4.00648361136E+01  9.87022104915E+01  0.00000000000E+00  0.0000E+00  9.0
</event>
<event>
 8    1   5.1859766E+00   4.8820000E+02  -1.0000000E+00   9.3760000E-02
       11   -1    0    0    0    0  0.00000000000E+00  0.00000000000E+00  2.38300563600E+02  2.38300563600E+02  0.00000000000E+00  0.0000E+00  9.0
      -11   -1    0    0    0    0  0.00000000000E+00  0.00000000000E+00 -2.50000000000E+02  2.50000000000E+02  0.00000000000E+00  0.0000E+00  9.0
       24    2    1    2    0    0  6.07828463951E+01 -4.94115089006E+01 -2.22349119834E+02  2.49105235935E+02  8.04874887884E+01  4.3784E-14  9.0
      -24    2    1    2    0    0 -6.07828463951E+01  4.94115089006E+01  2.10649683434E+02  2.39195327658E+02  8.18844552677E+01  1.2995E-13  9.0
       -3    1    3    3    0  500 -9.19758025262E+00  1.54309396122E+00  1.17827675361E+00  9.40026369761E+00  0.00000000000E+00  0.0000E+00  9.0
        4    1    3    3  500    0  6.99804266477E+01 -5.09546028618E+01 -2.23527396588E+02  2.39704972237E+02  5.87386917370E-01  0.0000E+00  9.0
        3    1    4    4  504    0 -4.37840012210E+01  4.36673084213E+01  5.57484081311E+01  8.32571774494E+01  0.00000000000E+00  0.0000E+00  9.0
       -4    1    4    4    0  504 -1.69988451740E+01  5.74420047932E+00  1.54901275303E+02  1.55938150208E+02  5.87386917370E-01  0.0000E+00  9.0
</event>
<event>
 8    1   5.1859766E+00   4.5990000E+02  -1.0000000E+00   9.4430000E-02
       11   -1    0    0    0    0  0.00000000000E+00  0.00000000000E+00  2.41124750460E+02  2.41124750460E+02  0.00000000000E+00  0.0000E+00  9.0
      -11   -1    0    0    0    0  0.00000000000E+00  0.00000000000E+00 -2.19254385470E+02  2.19254385470E+02  0.00000000000E+00  0.0000E+00  9.0
       24    2    1    2    0    0 -2.68659187384E+01  1.28632305615E+02 -1.59363555603E+02  2.21497589953E+02  7.99774459665E+01  8.6291E-14  9.0
      -24    2    1    2    0    0  2.68659187384E+01 -1.28632305615E+02  1.81233920603E+02  2.38881545982E+02  8.33703268331E+01  4.9688E-15  9.0
       -1    1    3    3    0  500 -2.69471318698E-01 -4.20292173955E+00  6.24840530530E+00  7.53523289618E+00  0.00000000000E+00  0.0000E+00  9.0
        2    1    3    3  500    0 -2.65964474197E+01  1.32835227354E+02 -1.65611960908E+02  2.13962357057E+02  0.00000000000E+00  0.0000E+00  9.0
        1    1    4    4  504    0 -1.92860365695E+01 -8.78526776464E+01  1.33447806414E+02  1.60929677850E+02  0.00000000000E+00  0.0000E+00  9.0
       -2    1    4    4    0  504  4.61519553079E+01 -4.07796279682E+01  4.77861141883E+01  7.79518681314E+01  0.00000000000E+00  0.0000E+00  9.0
</event>
<event>
 8    1   5.1859766E+00   4.7700000E+02  -1.0000000E+00   9.4020000E-02
       11   -1    0    0    0    0  0.00000000000E+00  0.00000000000E+00  2.49960211190E+02  2.49960211190E+02  0.00000000000E+00  0.0000E+00  9.0
      -11   -1    0    0    0    0  0.00000000000E+00  0.00000000000E+00 -2.27543127610E+02  2.27543127610E+02  0.00000000000E+00  0.0000E+00  9.0
       24    2    1    2    0    0  6.15601815706E+01  5.15623808846E+01 -1.99772316916E+02  2.30087263292E+02  8.11346722808E+01  2.4215E-14  9.0
      -24    2    1    2    0    0 -6.15601815706E+01 -5.15623808846E+01  2.22189400506E+02  2.47416075505E+02  7.34727816529E+01  2.5409E-14  9.0
       -3    1    3    3    0  500 -8.30467782782E+00  1.74982646706E+01 -4.45953168793E+00  1.98757229600E+01  0.00000000000E+00  0.0000E+00  9.0
        4    1    3    3  500    0  6.98648593984E+01  3.40641162140E+01 -1.95312785228E+02  2.10211540332E+02  5.87386917370E-01  0.0000E+00  9.0
        1    1    4    4  504    0 -1.30414865160E+01  8.39930209101E+00  4.03674210934E+00  1.60288469024E+01  0.00000000000E+00  0.0000E+00  9.0
       -2    1    4    4    0  504 -4.85186950545E+01 -5.99616829756E+01  2.18152658396E+02  2.31387228603E+02  0.00000000000E+00  0.0000E+00  9.0
</event>
<event>
 8    1   5.1859766E+00   5.0000000E+02  -1.0000000E+00   9.3490000E-02
       11   -1    0    0    0    0  0.00000000000E+00  0.00000000000E+00  2.49999998930E+02  2.49999998930E+02  0.00000000000E+00  0.0000E+00  9.0
      -11   -1    0    0    0    0  0.00000000000E+00  0.00000000000E+00 -2.50000000000E+02  2.50000000000E+02  0.00000000000E+00  0.0000E+00  9.0
       24    2    1    2    0    0 -3.43480626483E+01 -4.43721913870E+01 -2.29412748138E+02  2.50424830734E+02  8.32688781230E+01  4.0756E-14  9.0
      -24    2    1    2    0    0  3.43480626483E+01  4.43721913870E+01  2.29412747068E+02  2.49575168199E+02  8.06776009090E+01  1.9245E-14  9.0
       -3    1    3    3    0  500 -7.35888024485E+00  2.11981404149E+01 -2.28318676034E+01  3.20126295978E+01  0.00000000000E+00  0.0000E+00  9.0
        4    1    3    3  500    0 -2.69891824034E+01 -6.55703318019E+01 -2.06580880534E+02  2.18412201136E+02  5.87386917370E-01  0.0000E+00  9.0
        1    1    4    4  504    0  2.54910569914E+01  5.99251124600E+01  1.02711815970E+02  1.21616323862E+02  0.00000000000E+00  0.0000E+00  9.0
       -2    1    4    4    0  504  8.85700565683E+00 -1.55529210730E+01  1.26700931098E+02  1.27958844337E+02  0.00000000000E+00  0.0000E+00  9.0
</event>
<event>
 8    1   5.1859766E+00   4.9990000E+02  -1.0000000E+00   9.3490000E-02
       11   -1    0    0    0    0  0.00000000000E+00  0.00000000000E+00  2.49945286120E+02  2.49945286120E+02  0.00000000000E+00  0.0000E+00  9.0
      -11   -1    0    0    0    0  0.00000000000E+00  0.00000000000E+00 -2.49967778460E+02  2.49967778460E+02  0.00000000000E+00  0.0000E+00  9.0
       24    2    1    2    0    0  1.05839795263E+02 -7.68269201170E+01 -1.98506298756E+02  2.50735330880E+02  7.97434485677E+01  4.0583E-13  9.0
      -24    2    1    2    0    0 -1.05839795263E+02  7.68269201170E+01  1.98483806406E+02  2.49177733694E+02  7.47615118065E+01  1.1101E-13  9.0
       -1    1    3    3    0  500  5.10373373342E+01 -5.20856953991E+01 -1.68356979089E+02  1.83471528787E+02  0.00000000000E+00  0.0000E+00  9.0
        2    1    3    3  500    0  5.48024579288E+01 -2.47412247179E+01 -3.01493196670E+01  6.72638020927E+01  0.00000000000E+00  0.0000E+00  9.0
        1    1    4    4  504    0 -9.25978875428E+01  6.88261935376E+01  2.02617645866E+02  2.33163728120E+02  0.00000000000E+00  0.0000E+00  9.0
       -2    1    4    4    0  504 -1.32419077202E+01  8.00072657937E+00 -4.13383945999E+00  1.60140055748E+01  0.00000000000E+00  0.0000E+00  9.0
</event>
<event>
 8    1   5.1859766E+00   4.6490000E+02  -1.0000000E+00   9.4300000E-02
       11   -1    0    0    0    0  0.00000000000E+00  0.00000000000E+00  2.44912913800E+02  2.44912913800E+02  0.00000000000E+00  0.0000E+00  9.0
      -11   -1    0    0    0    0  0.00000000000E+00  0.00000000000E+00 -2.20578103180E+02  2.20578103180E+02  0.00000000000E+00  0.0000E+00  9.0
       24    2    1    2    0    0 -4.27813292218E+01  9.34589249721E+01 -1.80557685086E+02  2.22923210373E+02  8.08014064988E+01  1.2167E-13  9.0
      -24    2    1    2    0    0  4.27813292218E+01 -9.34589249721E+01  2.04892495706E+02  2.42567806604E+02  7.93309095944E+01  1.6853E-13  9.0
       -3    1    3    3    0  500 -4.26596508905E+01  7.98185630558E+01 -1.87057673080E+02  2.07801400093E+02  0.00000000000E+00  0.0000E+00  9.0
        4    1    3    3  500    0 -1.21678331293E-01  1.36403619163E+01  6.49998799389E+00  1.51218102797E+01  5.87386917370E-01  0.0000E+00  9.0
        1    1    4    4  504    0  2.21811909961E+01  9.06168296863E+00  5.29496229432E+01  5.81186880621E+01  0.00000000000E+00  0.0000E+00  9.0
       -2    1    4    4    0  504  2.06001382256E+01 -1.02520607941E+02  1.51942872763E+02  1.84449118542E+02  0.00000000000E+00  0.0000E+00  9.0
</event>
<event>
 8    1   5.1859766E+00   4.8650000E+02  -1.0000000E+00   9.3790000E-02
       11   -1    0    0    0    0  0.00000000000E+00  0.00000000000E+00  2.49999999980E+02  2.49999999980E+02  0.00000000000E+00  0.0000E+00  9.0
      -11   -1    0    0    0    0  0.00000000000E+00  0.00000000000E+00 -2.36662059450E+02  2.36662059450E+02  0.00000000000E+00  0.0000E+00  9.0
       24    2    1    2    0    0  1.73345098760E+02 -1.32644868653E+02  7.91724164998E+01  2.45427013773E+02  7.95170617619E+01  2.0764E-14  9.0
      -24    2    1    2    0    0 -1.73345098760E+02  1.32644868653E+02 -6.58344759748E+01  2.41235045656E+02  7.88478571788E+01  4.3045E-14  9.0
      -13    1    3    3    0    0  8.95650441313E+01 -1.14589742210E+02  3.78635920782E+01  1.50287620673E+02  1.05700000000E-01  0.0000E+00  9.0
       14    1    3    3    0    0  8.37800546283E+01 -1.80551264434E+01  4.13088244217E+01  9.51393931004E+01  0.00000000000E+00  0.0000E+00  9.0
        3    1    4    4  500    0 -9.81791285779E+01  4.23757909030E+01 -6.22054438937E+01  1.23710816799E+02  0.00000000000E+00  0.0000E+00  9.0
       -4    1    4    4    0  500 -7.51659701817E+01  9.02690777504E+01 -3.62903208112E+00  1.17524228857E+02  5.87386917370E-01  0.0000E+00  9.0
</event>
<event>
 8    1   5.1859766E+00   4.9960000E+02  -1.0000000E+00   9.3500000E-02
       11   -1    0    0    0    0  0.00000000000E+00  0.00000000000E+00  2.49619373670E+02  2.49619373670E+02  0.00000000000E+00  0.0000E+00  9.0
      -11   -1    0    0    0    0  0.00000000000E+00  0.00000000000E+00 -2.49998003020E+02  2.49998003020E+02  0.00000000000E+00  0.0000E+00  9.0
       24    2    1    2    0    0 -2.10265134819E+01  1.77486133453E+01 -2.35324034908E+02  2.49576749179E+02  7.84475925742E+01  1.5266E-14  9.0
      -24    2    1    2    0    0  2.10265134819E+01 -1.77486133453E+01  2.34945405558E+02  2.50040627515E+02  8.10175553220E+01  7.2068E-15  9.0
      -13    1    3    3    0    0 -1.75804479986E+01  1.34602457537E+01 -1.01876111843E+01  2.43731196549E+01  1.05700000000E-01  0.0000E+00  9.0
       14    1    3    3    0    0 -3.44606548331E+00  4.28836759165E+00 -2.25136423724E+02  2.25203629524E+02  0.00000000000E+00  0.0000E+00  9.0
        3    1    4    4  500    0  2.45945393755E+01 -8.30851774176E+00  2.38053374606E+02  2.39464677970E+02  0.00000000000E+00  0.0000E+00  9.0
       -4    1    4    4    0  500 -3.56802589360E+00 -9.44009560356E+00 -3.10796904773E+00  1.05759495448E+01  5.87386917370E-01  0.0000E+00  9.0
</event>
<event>
 8    1   5.1859766E+00   4.7530000E+02  -1.0000000E+00   9.4050000E-02
       11   -1    0    0    0    0  0.00000000000E+00  0.00000000000E+00  2.49666260690E+02  2.49666260690E+02  0.00000000000E+00  0.0000E+00  9.0
      -11   -1    0    0    0    0  0.00000000000E+00  0.00000000000E+00 -2.26234444210E+02  2.26234444210E+02  0.00000000000E+00  0.0000E+00  9.0
       24    2    1    2    0    0 -1.84485001716E+02 -1.27577576066E+02  1.73356557867E+01  2.37691907638E+02  7.67213413751E+01  7.4793E-14  9.0
      -24    2    1    2    0    0  1.84485001716E+02  1.27577576066E+02  6.09616068951E+00  2.38208797260E+02  7.99719584854E+01  4.2900E-14  9.0
       -3    1    3    3    0  500 -1.21158516941E+02 -3.73534902523E+01  7.05438742666E+00  1.26982021732E+02  0.00000000000E+00  0.0000E+00  9.0
        4    1    3    3  500    0 -6.33264847750E+01 -9.02240858137E+01  1.02812683600E+01  1.10709885906E+02  5.87386917370E-01  0.0000E+00  9.0
        1    1    4    4  504    0  9.22174719675E+01  2.05529678828E+01  1.87995993478E+01  9.63322975980E+01  0.00000000000E+00  0.0000E+00  9.0
       -2    1    4    4    0  504  9.22675297481E+01  1.07024608183E+02 -1.27034386583E+01  1.41876499662E+02  0.00000000000E+00  0.0000E+00  9.0
</event>
<event>
 8    1   5.1859766E+00   4.0280000E+02  -1.0000000E+00   9.5950000E-02
       11   -1    0    0    0    0  0.00000000000E+00  0.00000000000E+00  2.49999998970E+02  2.49999998970E+02  0.00000000000E+00  0.0000E+00  9.0
      -11   -1    0    0    0    0  0.00000000000E+00  0.00000000000E+00 -1.62233546130E+02  1.62233546130E+02  0.00000000000E+00  0.0000E+00  9.0
       24    2    1    2    0    0 -3.71910021935E+00  2.78085106414E+01 -1.41293450843E+02  1.67980097276E+02  8.64079212759E+01  6.8601E-14  9.0
      -24    2    1    2    0    0  3.71910021935E+00 -2.78085106414E+01  2.29059903683E+02  2.44253447823E+02  8.00260103206E+01  1.3081E-13  9.0
       -1    1    3    3    0  500  2.37781475774E+01 -2.81992076696E+00 -1.18569883387E+02  1.20963504834E+02  0.00000000000E+00  0.0000E+00  9.0
        2    1    3    3  500    0 -2.74972477967E+01  3.06284314084E+01 -2.27235674560E+01  4.70165924421E+01  0.00000000000E+00  0.0000E+00  9.0
        1    1    4    4  504    0 -1.84831260867E+01 -4.17735072070E+01  7.37982830232E+01  8.67919260731E+01  0.00000000000E+00  0.0000E+00  9.0
       -2    1    4    4    0  504  2.22022263061E+01  1.39649965656E+01  1.55261620659E+02  1.57461521750E+02  0.00000000000E+00  0.0000E+00  9.0
</event>
<event>
 8    1   5.1859766E+00   4.9690000E+02  -1.0000000E+00   9.3560000E-02
       11   -1    0    0    0    0  0.00000000000E+00  0.00000000000E+00  2.49390105730E+02  2.49390105730E+02  0.00000000000E+00  0.0000E+00  9.0
      -11   -1    0    0    0    0  0.00000000000E+00  0.00000000000E+00 -2.47487599070E+02  2.47487599070E+02  0.00000000000E+00  0.0000E+00  9.0
       24    2    1    2    0    0  9.42295737865E+01 -2.11470894186E+02 -1.10743053901E+01  2.44543112355E+02  7.79714171764E+01  8.8081E-14  9.0
      -24    2    1    2    0    0 -9.42295737865E+01  2.11470894186E+02  1.29768120521E+01  2.52334592452E+02  9.95248573616E+01  2.2320E-13  9.0
       -3    1    3    3    0  500  2.37777650125E+00 -5.32566696579E+01  2.36697057377E+01  5.83282234759E+01  0.00000000000E+00  0.0000E+00  9.0
        4    1    3    3  500    0  9.18517972853E+01 -1.58214224529E+02 -3.47440111278E+01  1.86214888879E+02  5.87386917370E-01  0.0000E+00  9.0
       13    1    4    4    0    0 -2.92174747245E+01  4.42947362189E+01 -3.86887352016E+01  6.56697334391E+01  1.05700000000E-01  0.0000E+00  9.0
      -14    1    4    4    0    0 -6.50120990620E+01  1.67176157968E+02  5.16655472537E+01  1.86664859013E+02  0.00000000000E+00  0.0000E+00  9.0
</event>
<event>
 8    1   5.1859766E+00   4.9540000E+02  -1.0000000E+00   9.3590000E-02
       11   -1    0    0    0    0  0.00000000000E+00  0.00000000000E+00  2.49996178670E+02  2.49996178670E+02  0.00000000000E+00  0.0000E+00  9.0
      -11   -1    0    0    0    0  0.00000000000E+00  0.00000000000E+00 -2.45409520290E+02  2.45409520290E+02  0.00000000000E+00  0.0000E+00  9.0
       24    2    1    2    0    0  8.51678995126E+00  2.09508122990E+02  1.06120757511E+02  2.48190501781E+02  7.98167945331E+01  5.2190E-14  9.0
      -24    2    1    2    0    0 -8.51678995126E+00 -2.09508122990E+02 -1.01534099131E+02  2.47215197190E+02  8.27042388609E+01  3.8008E-14  9.0
       -3    1    3    3    0  500  2.73553772767E+01  1.82261278662E+02  1.10315944580E+02  2.14795479454E+02  0.00000000000E+00  0.0000E+00  9.0
        4    1    3    3  500    0 -1.88385873255E+01  2.72468443286E+01 -4.19518706858E+00  3.33950223269E+01  5.87386917370E-01  0.0000E+00  9.0
        3    1    4    4  504    0 -3.79856281504E+01 -1.77651823098E+02 -7.65460818147E+01  1.97135437802E+02  0.00000000000E+00  0.0000E+00  9.0
       -4    1    4    4    0  504  2.94688381992E+01 -3.18562998917E+01 -2.49880173167E+01  5.00797593885E+01  5.87386917370E-01  0.0000E+00  9.0
</event>
<event>
 8    1   5.1859766E+00   4.9820000E+02  -1.0000000E+00   9.3530000E-02
       11   -1    0    0    0    0  0.00000000000E+00  0.00000000000E+00  2.48211856210E+02  2.48211856210E+02  0.00000000000E+00  0.0000E+00  9.0
      -11   -1    0    0    0    0  0.00000000000E+00  0.00000000000E+00 -2.49999700960E+02  2.49999700960E+02  0.00000000000E+00  0.0000E+00  9.0
       24    2    1    2    0    0 -2.88396731456E+01 -1.59596278435E+02 -1.72989655115E+02  2.49340862152E+02  7.70892075747E+01  4.4321E-14  9.0
      -24    2    1    2    0    0  2.88396731456E+01  1.59596278435E+02  1.71201810375E+02  2.48870695016E+02  7.95227270953E+01  1.1455E-14  9.0
      -13    1    3    3    0    0  3.57815685970E+00 -1.39985231078E+02 -1.21369708942E+02  1.85308622432E+02  1.05700000000E-01  0.0000E+00  9.0
       14    1    3    3    0    0 -3.24178300053E+01 -1.96110473571E+01 -5.16199461726E+01  6.40322397199E+01  0.00000000000E+00  0.0000E+00  9.0
       13    1    4    4    0    0 -8.99729687026E+00  1.32978106179E+02  1.38522139842E+02  1.92230389046E+02  1.05700000000E-01  0.0000E+00  9.0
      -14    1    4    4    0    0  3.78369700158E+01  2.66181722558E+01  3.26796705330E+01  5.66403059699E+01  0.00000000000E+00  0.0000E+00  9.0
</event>
<event>
 8    1   5.1859766E+00   4.8420000E+02  -1.0000000E+00   9.3850000E-02
       11   -1    0    0    0    0  0.00000000000E+00  0.00000000000E+00  2.49968205240E+02  2.49968205240E+02  0.00000000000E+00  0.0000E+00  9.0
      -11   -1    0    0    0    0  0.00000000000E+00  0.00000000000E+00 -2.34470829500E+02  2.34470829500E+02  0.00000000000E+00  0.0000E+00  9.0
       24    2    1    2    0    0 -2.16178218157E+01 -3.83193264586E+01 -2.13830504540E+02  2.32054252914E+02  7.86764934592E+01  1.0285E-13  9.0
      -24    2    1    2    0    0  2.16178218157E+01  3.83193264586E+01  2.29327880280E+02  2.52384781820E+02  9.57658624984E+01  1.9579E-13  9.0
       -1    1    3    3    0  500 -5.18969459310E+00 -3.24283232452E+01 -2.11974488903E+02  2.14503410286E+02  0.00000000000E+00  0.0000E+00  9.0
        2    1    3    3  500    0 -1.64281272226E+01 -5.89100321332E+00 -1.85601563714E+00  1.75508426278E+01  0.00000000000E+00  0.0000E+00  9.0
        1    1    4    4  504    0 -2.38313916427E+01  2.74706420592E+01  2.85319329098E+01  4.62238314979E+01  0.00000000000E+00  0.0000E+00  9.0
       -2    1    4    4    0  504  4.54492134585E+01  1.08486843993E+01  2.00795947371E+02  2.06160950322E+02  0.00000000000E+00  0.0000E+00  9.0
</event>
<event>
 8    1   5.1859766E+00   4.9160000E+02  -1.0000000E+00   9.3680000E-02
       11   -1    0    0    0    0  0.00000000000E+00  0.00000000000E+00  2.41727854510E+02  2.41727854510E+02  0.00000000000E+00  0.0000E+00  9.0
      -11   -1    0    0    0    0  0.00000000000E+00  0.00000000000E+00 -2.49915328470E+02  2.49915328470E+02  0.00000000000E+00  0.0000E+00  9.0
       24    2    1    2    0    0  5.94013716216E+01  2.49079762925E+01 -2.33484595886E+02  2.55148866402E+02  8.02306504787E+01  6.3022E-14  9.0
      -24    2    1    2    0    0 -5.94013716216E+01 -2.49079762925E+01  2.25297121916E+02  2.36494316582E+02  3.19662071293E+01  1.2607E-13  9.0
       -1    1    3    3    0  500  4.82628563285E+00 -1.96393146878E+01 -1.19143857872E+02  1.20848064043E+02  0.00000000000E+00  0.0000E+00  9.0
        2    1    3    3  500    0  5.45750859888E+01  4.45472909803E+01 -1.14340738015E+02  1.34300802358E+02  0.00000000000E+00  0.0000E+00  9.0
        1    1    4    4  504    0 -9.55665875406E-01  5.44381745515E+00  1.10724544398E+01  1.23752855754E+01  0.00000000000E+00  0.0000E+00  9.0
       -2    1    4    4    0  504 -5.84457057462E+01 -3.03517937477E+01  2.14224667477E+02  2.24119031007E+02  0.00000000000E+00  0.0000E+00  9.0
</event>
<event>
 8    1   5.1859766E+00   4.9250000E+02  -1.0000000E+00   9.3660000E-02
       11   -1    0    0    0    0  0.00000000000E+00  0.00000000000E+00  2.48935347990E+02  2.48935347990E+02  0.00000000000E+00  0.0000E+00  9.0
      -11   -1    0    0    0    0  0.00000000000E+00  0.00000000000E+00 -2.43549726910E+02  2.43549726910E+02  0.00000000000E+00  0.0000E+00  9.0
       24    2    1    2    0    0 -5.50983446455E+01 -1.89555600914E+02 -1.18009839101E+02  2.45913201197E+02  8.70622017741E+01  1.7129E-15  9.0
      -24    2    1    2    0    0  5.50983446455E+01  1.89555600914E+02  1.23395460181E+02  2.46571873704E+02  8.12655885852E+01  3.6409E-14  9.0
       -3    1    3    3    0  500 -2.39504196589E+01 -1.81464974525E+02 -1.06272309439E+02  2.11652931316E+02  0.00000000000E+00  0.0000E+00  9.0
        4    1    3    3  500    0 -3.11479249867E+01 -8.09062638853E+00 -1.17375296626E+01  3.42602698808E+01  5.87386917370E-01  0.0000E+00  9.0
        1    1    4    4  504    0  2.41128893681E+01  9.01415740669E+01  1.05620416343E+02  1.40934762062E+02  0.00000000000E+00  0.0000E+00  9.0
       -2    1    4    4    0  504  3.09854552775E+01  9.94140268471E+01  1.77750438383E+01  1.05637111642E+02  0.00000000000E+00  0.0000E+00  9.0
</event>
<event>
 8    1   5.1859766E+00   2.5320000E+02  -1.0000000E+00   1.0170000E-01
       11   -1    0    0    0    0  0.00000000000E+00  0.00000000000E+00  2.40431555630E+02  2.40431555630E+02  0.00000000000E+00  0.0000E+00  9.0
      -11   -1    0    0    0    0  0.00000000000E+00  0.00000000000E+00 -6.66685038350E+01  6.66685038350E+01  0.00000000000E+00  0.0000E+00  9.0
       24    2    1    2    0    0 -5.50914552635E+01  7.42514597357E+01  1.24144602466E+02  1.74734809429E+02  8.10680182872E+01  5.0572E-15  9.0
      -24    2    1    2    0    0  5.50914552635E+01 -7.42514597357E+01  4.96184493343E+01  1.32365250040E+02  8.06859416986E+01  1.0265E-13  9.0
       -1    1    3    3    0  500 -3.99763818458E+00  5.61903717817E+01  1.01330652806E+02  1.15936362674E+02  0.00000000000E+00  0.0000E+00  9.0
        2    1    3    3  500    0 -5.10938170789E+01  1.80610879540E+01  2.28139496602E+01  5.87984467557E+01  0.00000000000E+00  0.0000E+00  9.0
        3    1    4    4  504    0  4.45846968729E+01 -1.08713446330E+01  5.03335629912E+01  6.81135000772E+01  0.00000000000E+00  0.0000E+00  9.0
       -4    1    4    4    0  504  1.05067583906E+01 -6.33801151027E+01 -7.15113656913E-01  6.42517499625E+01  5.87386917370E-01  0.0000E+00  9.0
</event>
<event>
 8    1   5.1859766E+00   4.8920000E+02  -1.0000000E+00   9.3730000E-02
       11   -1    0    0    0    0  0.00000000000E+00  0.00000000000E+00  2.39442929560E+02  2.39442929560E+02  0.00000000000E+00  0.0000E+00  9.0
      -11   -1    0    0    0    0  0.00000000000E+00  0.00000000000E+00 -2.49831293860E+02  2.49831293860E+02  0.00000000000E+00  0.0000E+00  9.0
       24    2    1    2    0    0 -1.27926395799E+02  1.79290787369E+01 -1.96597053618E+02  2.48463601957E+02  7.99821567595E+01  1.3857E-13  9.0
      -24    2    1    2    0    0  1.27926395799E+02 -1.79290787369E+01  1.86208689328E+02  2.40810621471E+02  8.14215255672E+01  2.7476E-14  9.0
       -3    1    3    3    0  500 -8.20202801955E+00  3.60117779552E+00 -8.07683845883E+01  8.12636062093E+01  0.00000000000E+00  0.0000E+00  9.0
        4    1    3    3  500    0 -1.19724367779E+02  1.43279009414E+01 -1.15828669029E+02  1.67199995748E+02  5.87386917370E-01  0.0000E+00  9.0
        1    1    4    4  504    0  9.17916032148E+01 -4.63684066106E+01  1.01879843014E+02  1.44759213748E+02  0.00000000000E+00  0.0000E+00  9.0
       -2    1    4    4    0  504  3.61347925840E+01  2.84393278737E+01  8.43288463135E+01  9.60514077229E+01  0.00000000000E+00  0.0000E+00  9.0
</event>
<event>
 8    1   5.1859766E+00   1.8280000E+02  -1.0000000E+00   1.0620000E-01
       11   -1    0    0    0    0  0.00000000000E+00  0.00000000000E+00  2.41777993750E+02  2.41777993750E+02  0.00000000000E+00  0.0000E+00  9.0
      -11   -1    0    0    0    0  0.00000000000E+00  0.00000000000E+00 -3.45513624940E+01  3.45513624940E+01  0.00000000000E+00  0.0000E+00  9.0
       24    2    1    2    0    0  8.99552046032E+00 -4.67438102165E+01  5.19548139506E+01  9.12076596938E+01  5.79105457776E+01  1.9396E-13  9.0
      -24    2    1    2    0    0 -8.99552046032E+00  4.67438102165E+01  1.55271817304E+02  1.85121696551E+02  8.88526989067E+01  3.1871E-13  9.0
      -13    1    3    3    0    0  4.83537974555E+00 -4.83741886089E+01  1.07865534054E+01  4.97976297399E+01  1.05700000000E-01  0.0000E+00  9.0
       14    1    3    3    0    0  4.16014071477E+00  1.63037839234E+00  4.11682605452E+01  4.14100299539E+01  0.00000000000E+00  0.0000E+00  9.0
        1    1    4    4  500    0 -1.36103424396E+01  7.24244533347E+01  1.02372063424E+02  1.26137156428E+02  0.00000000000E+00  0.0000E+00  9.0
       -2    1    4    4    0  500  4.61482197928E+00 -2.56806431182E+01  5.28997538805E+01  5.89845401226E+01  0.00000000000E+00  0.0000E+00  9.0
</event>
<event>
 8    1   5.1859766E+00   4.5420000E+02  -1.0000000E+00   9.4560000E-02
       11   -1    0    0    0    0  0.00000000000E+00  0.00000000000E+00  2.13314246360E+02  2.13314246360E+02  0.00000000000E+00  0.0000E+00  9.0
      -11   -1    0    0    0    0  0.00000000000E+00  0.00000000000E+00 -2.41824759400E+02  2.41824759400E+02  0.00000000000E+00  0.0000E+00  9.0
       24    2    1    2    0    0 -7.47143559296E+01  1.85218392495E+01 -2.13504509811E+02  2.40094130621E+02  7.83308517614E+01  5.8221E-15  9.0
      -24    2    1    2    0    0  7.47143559296E+01 -1.85218392495E+01  1.84993996771E+02  2.15044875140E+02  7.80783322797E+01  2.1886E-13  9.0
       -3    1    3    3    0  500 -3.06436602626E+01  2.45257132800E+01 -2.52832693467E+01  4.66882023111E+01  0.00000000000E+00  0.0000E+00  9.0
        4    1    3    3  500    0 -4.40706956670E+01 -6.00387403049E+00 -1.88221240464E+02  1.93405928310E+02  5.87386917370E-01  0.0000E+00  9.0
        1    1    4    4  504    0  1.37898340971E+00 -3.41857154395E+01  6.71643030696E+01  7.53764442129E+01  0.00000000000E+00  0.0000E+00  9.0
       -2    1    4    4    0  504  7.33353725199E+01  1.56638761899E+01  1.17829693701E+02  1.39668430927E+02  0.00000000000E+00  0.0000E+00  9.0
</event>
<event>
 8    1   5.1859766E+00   4.5140000E+02  -1.0000000E+00   9.4640000E-02
       11   -1    0    0    0    0  0.00000000000E+00  0.00000000000E+00  2.03781184820E+02  2.03781184820E+02  0.00000000000E+00  0.0000E+00  9.0
      -11   -1    0    0    0    0  0.00000000000E+00  0.00000000000E+00 -2.49997920690E+02  2.49997920690E+02  0.00000000000E+00  0.0000E+00  9.0
       24    2    1    2    0    0 -1.00365882507E+01  4.46363428964E+01 -2.31141929335E+02  2.48882969209E+02  8.01436501214E+01  2.7826E-14  9.0
      -24    2    1    2    0    0  1.00365882507E+01 -4.46363428964E+01  1.84925193465E+02  2.04896136304E+02  7.54451011214E+01  3.0111E-13  9.0
       -3    1    3    3    0  500 -1.07276652470E+01  5.27188245520E+01 -7.37842276362E+01  9.13152205915E+01  0.00000000000E+00  0.0000E+00  9.0
        4    1    3    3  500    0  6.91076996324E-01 -8.08248165558E+00 -1.57357701699E+02  1.57567748618E+02  5.87386917370E-01  0.0000E+00  9.0
        3    1    4    4  504    0 -2.97171618266E+01 -3.58632383029E+01  8.36327617927E+01  9.57273232347E+01  0.00000000000E+00  0.0000E+00  9.0
       -4    1    4    4    0  504  3.97537500773E+01 -8.77310459353E+00  1.01292431672E+02  1.09168813069E+02  5.87386917370E-01  0.0000E+00  9.0
</event>
<event>
 8    1   5.1859766E+00   5.0000000E+02  -1.0000000E+00   9.3490000E-02
       11   -1    0    0    0    0  0.00000000000E+00  0.00000000000E+00  2.49999999930E+02  2.49999999930E+02  0.00000000000E+00  0.0000E+00  9.0
      -11   -1    0    0    0    0  0.00000000000E+00  0.00000000000E+00 -2.49993705180E+02  2.49993705180E+02  0.00000000000E+00  0.0000E+00  9.0
       24    2    1    2    0    0  9.81331132823E+01  2.06541699846E+01 -2.14944748389E+02  2.49956638370E+02  7.88693447736E+01  8.3626E-14  9.0
      -24    2    1    2    0    0 -9.81331132823E+01 -2.06541699846E+01  2.14951043149E+02  2.50037066740E+02  7.91067704621E+01  1.2302E-13  9.0
       -3    1    3    3    0  500  1.26252095158E+01  3.80683587751E+01 -6.11647878337E+01  7.31418288388E+01  0.00000000000E+00  0.0000E+00  9.0
        4    1    3    3  500    0  8.55079037665E+01 -1.74141887905E+01 -1.53779960555E+02  1.76814809531E+02  5.87386917370E-01  0.0000E+00  9.0
        1    1    4    4  504    0 -4.03797399986E+01 -1.31642777315E+01  1.73325699424E+02  1.78453410422E+02  0.00000000000E+00  0.0000E+00  9.0
       -2    1    4    4    0  504 -5.77533732837E+01 -7.48989225304E+00  4.16253437251E+01  7.15836563179E+01  0.00000000000E+00  0.0000E+00  9.0
</event>
<event>
 8    1   5.1859766E+00   4.9250000E+02  -1.0000000E+00   9.3660000E-02
       11   -1    0    0    0    0  0.00000000000E+00  0.00000000000E+00  2.49873817500E+02  2.49873817500E+02  0.00000000000E+00  0.0000E+00  9.0
      -11   -1    0    0    0    0  0.00000000000E+00  0.00000000000E+00 -2.42693148850E+02  2.42693148850E+02  0.00000000000E+00  0.0000E+00  9.0
       24    2    1    2    0    0  1.52513153338E+02 -3.05537736796E+01 -1.67597912115E+02  2.45898669112E+02  9.04615957100E+01  2.2279E-14  9.0
      -24    2    1    2    0    0 -1.52513153338E+02  3.05537736796E+01  1.74778580775E+02  2.46668297234E+02  7.81274697877E+01  3.2120E-13  9.0
       -3    1    3    3    0  500  1.38410409434E+02 -5.24034995457E+01 -1.15735351677E+02  1.87878258008E+02  0.00000000000E+00  0.0000E+00  9.0
        4    1    3    3  500    0  1.41027439037E+01  2.18497258661E+01 -5.18625604381E+01  5.80204111035E+01  5.87386917370E-01  0.0000E+00  9.0
        1    1    4    4  504    0 -7.80225679537E+01 -1.98056352003E+01  1.07844364278E+02  1.34574110446E+02  0.00000000000E+00  0.0000E+00  9.0
       -2    1    4    4    0  504 -7.44905853841E+01  5.03594088800E+01  6.69342164973E+01  1.12094186788E+02  0.00000000000E+00  0.0000E+00  9.0
</event>
<event>
 8    1   5.1859766E+00   4.9770000E+02  -1.0000000E+00   9.3540000E-02
       11   -1    0    0    0    0  0.00000000000E+00  0.00000000000E+00  2.49369128000E+02  2.49369128000E+02  0.00000000000E+00  0.0000E+00  9.0
      -11   -1    0    0    0    0  0.00000000000E+00  0.00000000000E+00 -2.48352467310E+02  2.48352467310E+02  0.00000000000E+00  0.0000E+00  9.0
       24    2    1    2    0    0 -2.25396704055E+02  1.01101351478E+00  6.80531371529E+01  2.49278392807E+02  8.18766834731E+01  4.6545E-13  9.0
      -24    2    1    2    0    0  2.25396704055E+02 -1.01101351478E+00 -6.70364764609E+01  2.48443202493E+02  8.01588381993E+01  2.1452E-14  9.0
       -1    1    3    3    0  500 -4.67240196450E+01  1.44259510002E+01  4.87779222658E+01  6.90690073377E+01  0.00000000000E+00  0.0000E+00  9.0
        2    1    3    3  500    0 -1.78672684410E+02 -1.34149374855E+01  1.92752148871E+01  1.80209385469E+02  0.00000000000E+00  0.0000E+00  9.0
       13    1    4    4    0    0  9.74767321840E+01 -4.01858159657E+01 -2.84939710276E+01  1.09217813014E+02  1.05700000000E-01  0.0000E+00  9.0
      -14    1    4    4    0    0  1.27919971871E+02  3.91748024509E+01 -3.85425054333E+01  1.39225389479E+02  0.00000000000E+00  0.0000E+00  9.0
</event>
<event>
 8    1   5.1859766E+00   4.7890000E+02  -1.0000000E+00   9.3970000E-02
       11   -1    0    0    0    0  0.00000000000E+00  0.00000000000E+00  2.49921394570E+02  2.49921394570E+02  0.00000000000E+00  0.0000E+00  9.0
      -11   -1    0    0    0    0  0.00000000000E+00  0.00000000000E+00 -2.29387395220E+02  2.29387395220E+02  0.00000000000E+00  0.0000E+00  9.0
       24    2    1    2    0    0  2.81924418724E+01  2.28883072722E+01 -2.12982949937E+02  2.29654152846E+02  7.78498848237E+01  5.6363E-14  9.0
      -24    2    1    2    0    0 -2.81924418724E+01 -2.28883072722E+01  2.33516949287E+02  2.49654636940E+02  8.04896499760E+01  2.6734E-14  9.0
       -1    1    3    3    0  500  1.92917748139E+01 -2.69352847716E+01 -6.03176652536E+01  6.88178965303E+01  0.00000000000E+00  0.0000E+00  9.0
        2    1    3    3  500    0  8.90066705843E+00  4.98235920438E+01 -1.52665284683E+02  1.60836256315E+02  0.00000000000E+00  0.0000E+00  9.0
        1    1    4    4  504    0 -4.89868280970E+01 -7.73310709326E+00  8.09548714263E+01  9.49378822176E+01  0.00000000000E+00  0.0000E+00  9.0
       -2    1    4    4    0  504  2.07943862246E+01 -1.51552001789E+01  1.52562077860E+02  1.54716754723E+02  0.00000000000E+00  0.0000E+00  9.0
</event>
<event>
 8    1   5.1859766E+00   5.0000000E+02  -1.0000000E+00   9.3490000E-02
       11   -1    0    0    0    0  0.00000000000E+00  0.00000000000E+00  2.50000000000E+02  2.50000000000E+02  0.00000000000E+00  0.0000E+00  9.0
      -11   -1    0    0    0    0  0.00000000000E+00  0.00000000000E+00 -2.49999988220E+02  2.49999988220E+02  0.00000000000E+00  0.0000E+00  9.0
       24    2    1    2    0    0  7.47503694359E+01  2.17175927601E+01 -2.24226592071E+02  2.49345854381E+02  7.63971134211E+01  1.7071E-13  9.0
      -24    2    1    2    0    0 -7.47503694359E+01 -2.17175927601E+01  2.24226603851E+02  2.50654133838E+02  8.05645912863E+01  2.6233E-14  9.0
       -1    1    3    3    0  500  4.92868103460E+01  4.19600571866E+01 -8.77183060079E+01  1.09015307559E+02  0.00000000000E+00  0.0000E+00  9.0
        2    1    3    3  500    0  2.54635590899E+01 -2.02424644265E+01 -1.36508286063E+02  1.40330546823E+02  0.00000000000E+00  0.0000E+00  9.0
       13    1    4    4    0    0 -6.74322326488E+01  1.69320850109E+01  1.12989473871E+02  1.32666626854E+02  1.05700000000E-01  0.0000E+00  9.0
      -14    1    4    4    0    0 -7.31813678707E+00 -3.86496777710E+01  1.11237129981E+02  1.17987506983E+02  0.00000000000E+00  0.0000E+00  9.0
</event>
<event>
 8    1   5.1859766E+00   1.8850000E+02  -1.0000000E+00   1.0570000E-01
       11   -1    0    0    0    0  0.00000000000E+00  0.00000000000E+00  2.48986363110E+02  2.48986363110E+02  0.00000000000E+00  0.0000E+00  9.0
      -11   -1    0    0    0    0  0.00000000000E+00  0.00000000000E+00 -3.56695990330E+01  3.56695990330E+01  0.00000000000E+00  0.0000E+00  9.0
       24    2    1    2    0    0  2.49124032747E+01 -2.26025654217E+01  5.20506131486E+01  1.00800352820E+02  7.94980565727E+01  7.3319E-17  9.0
      -24    2    1    2    0    0 -2.49124032747E+01  2.26025654217E+01  1.61266150925E+02  1.83855609320E+02  8.16370617040E+01  5.7169E-14  9.0
       -1    1    3    3    0  500 -2.10671448924E+01 -7.63873925655E+00 -7.91724089527E+00  2.37667337836E+01  0.00000000000E+00  0.0000E+00  9.0
        2    1    3    3  500    0  4.59795481671E+01 -1.49638261652E+01  5.99678540439E+01  7.70336190360E+01  0.00000000000E+00  0.0000E+00  9.0
        3    1    4    4  504    0  1.50750931411E+01  3.98586719594E+01  5.97461021484E+01  7.33864352964E+01  0.00000000000E+00  0.0000E+00  9.0
       -4    1    4    4    0  504 -3.99874964158E+01 -1.72561065377E+01  1.01520048777E+02  1.10469174024E+02  5.87386917370E-01  0.0000E+00  9.0
</event>
<event>
 8    1   5.1859766E+00   2.8200000E+02  -1.0000000E+00   1.0030000E-01
       11   -1    0    0    0    0  0.00000000000E+00  0.00000000000E+00  8.72407177420E+01  8.72407177420E+01  0.00000000000E+00  0.0000E+00  9.0
      -11   -1    0    0    0    0  0.00000000000E+00  0.00000000000E+00 -2.27931942160E+02  2.27931942160E+02  0.00000000000E+00  0.0000E+00  9.0
       24    2    1    2    0    0 -4.82355511472E+00  8.14519979929E+01 -1.61163696569E+02  1.97494639516E+02  7.98291981985E+01  5.5768E-14  9.0
      -24    2    1    2    0    0  4.82355511472E+00 -8.14519979929E+01  2.04724721555E+01  1.17678020382E+02  8.22879073977E+01  2.2954E-13  9.0
       -1    1    3    3    0  500 -4.10013064845E+01  5.69156106608E+01 -1.06049890062E+02  1.27149805555E+02  0.00000000000E+00  0.0000E+00  9.0
        2    1    3    3  500    0  3.61777513698E+01  2.45363873321E+01 -5.51138065061E+01  7.03448339615E+01  0.00000000000E+00  0.0000E+00  9.0
        1    1    4    4  504    0  3.22672228953E+01 -4.09188542691E+01 -1.83024242175E+01  5.52313773168E+01  0.00000000000E+00  0.0000E+00  9.0
       -2    1    4    4    0  504 -2.74436677805E+01 -4.05331437238E+01  3.87748963730E+01  6.24466430652E+01  0.00000000000E+00  0.0000E+00  9.0
</event>
<event>
 8    1   5.1859766E+00   4.9790000E+02  -1.0000000E+00   9.3540000E-02
       11   -1    0    0    0    0  0.00000000000E+00  0.00000000000E+00  2.48153146500E+02  2.48153146500E+02  0.00000000000E+00  0.0000E+00  9.0
      -11   -1    0    0    0    0  0.00000000000E+00  0.00000000000E+00 -2.49789129720E+02  2.49789129720E+02  0.00000000000E+00  0.0000E+00  9.0
       24    2    1    2    0    0  4.95817136836E+01  1.23150264300E+02 -1.95571165363E+02  2.49547576056E+02  8.00098622997E+01  1.0309E-14  9.0
      -24    2    1    2    0    0 -4.95817136836E+01 -1.23150264300E+02  1.93935182153E+02  2.48394700158E+02  8.04035960710E+01  3.2898E-14  9.0
       -3    1    3    3    0  500  4.62344634639E+01  3.35168687819E+01 -3.91617945909E+01  6.92434275605E+01  0.00000000000E+00  0.0000E+00  9.0
        4    1    3    3  500    0  3.34725021962E+00  8.96333955182E+01 -1.56409370772E+02  1.80304148496E+02  5.87386917370E-01  0.0000E+00  9.0
        1    1    4    4  504    0  9.00958312424E+00 -8.13942480682E+01  8.67100559594E+01  1.19267891786E+02  0.00000000000E+00  0.0000E+00  9.0
       -2    1    4    4    0  504 -5.85912968078E+01 -4.17560162319E+01  1.07225126193E+02  1.29126808372E+02  0.00000000000E+00  0.0000E+00  9.0
</event>
<event>
 8    1   5.1859766E+00   4.9260000E+02  -1.0000000E+00   9.3660000E-02
       11   -1    0    0    0    0  0.00000000000E+00  0.00000000000E+00  2.44997707020E+02  2.44997707020E+02  0.00000000000E+00  0.0000E+00  9.0
      -11   -1    0    0    0    0  0.00000000000E+00  0.00000000000E+00 -2.47626009640E+02  2.47626009640E+02  0.00000000000E+00  0.0000E+00  9.0
       24    2    1    2    0    0  1.26385202876E+01  5.58827095748E+01 -2.26788507201E+02  2.47371536940E+02  8.04800650171E+01  1.8748E-13  9.0
      -24    2    1    2    0    0 -1.26385202876E+01 -5.58827095748E+01  2.24160204571E+02  2.45252179714E+02  8.13524733293E+01  5.8203E-14  9.0
       -3    1    3    3    0  500  4.09043924942E+00 -1.22845480917E+01 -3.02234725441E+00  1.32957285621E+01  0.00000000000E+00  0.0000E+00  9.0
        4    1    3    3  500    0  8.54808103818E+00  6.81672576664E+01 -2.23766159946E+02  2.34075808378E+02  5.87386917370E-01  0.0000E+00  9.0
        1    1    4    4  504    0 -6.89245864221E+00  1.29471518056E+01  5.04834402785E+00  1.55119471194E+01  0.00000000000E+00  0.0000E+00  9.0
       -2    1    4    4    0  504 -5.74606164540E+00 -6.88298613803E+01  2.19111860543E+02  2.29740232594E+02  0.00000000000E+00  0.0000E+00  9.0
</event>
<event>
 8    1   5.1859766E+00   4.3310000E+02  -1.0000000E+00   9.5110000E-02
       11   -1    0    0    0    0  0.00000000000E+00  0.00000000000E+00  2.49714501700E+02  2.49714501700E+02  0.00000000000E+00  0.0000E+00  9.0
      -11   -1    0    0    0    0  0.00000000000E+00  0.00000000000E+00 -1.87824383180E+02  1.87824383180E+02  0.00000000000E+00  0.0000E+00  9.0
       24    2    1    2    0    0  4.20348121851E+01  6.72577934688E+01 -1.53350928240E+02  1.94210688667E+02  8.89423868731E+01  3.3549E-15  9.0
      -24    2    1    2    0    0 -4.20348121851E+01 -6.72577934688E+01  2.15241046770E+02  2.43328196218E+02  8.11749138731E+01  1.1461E-13  9.0
       -1    1    3    3    0  500  2.84340671744E+01 -9.06930919119E+00 -1.04298338275E+01  3.16153440429E+01  0.00000000000E+00  0.0000E+00  9.0
        2    1    3    3  500    0  1.36007450107E+01  7.63271026600E+01 -1.42921094412E+02  1.62595344624E+02  0.00000000000E+00  0.0000E+00  9.0
        1    1    4    4  504    0 -2.84394164812E+01 -8.46281107628E+01  1.51154076344E+02  1.75551338179E+02  0.00000000000E+00  0.0000E+00  9.0
       -2    1    4    4    0  504 -1.35953957039E+01  1.73703172939E+01  6.40869704260E+01  6.77768580388E+01  0.00000000000E+00  0.0000E+00  9.0
</event>
<event>
 8    1   5.1859766E+00   4.7850000E+02  -1.0000000E+00   9.3980000E-02
       11   -1    0    0    0    0  0.00000000000E+00  0.00000000000E+00  2.31351005580E+02  2.31351005580E+02  0.00000000000E+00  0.0000E+00  9.0
      -11   -1    0    0    0    0  0.00000000000E+00  0.00000000000E+00 -2.47469471250E+02  2.47469471250E+02  0.00000000000E+00  0.0000E+00  9.0
       24    2    1    2    0    0  5.52409511180E+01  2.90060417590E+01 -2.24070824795E+02  2.45861832687E+02  7.96705284858E+01  2.4959E-14  9.0
      -24    2    1    2    0    0 -5.52409511180E+01 -2.90060417590E+01  2.07952359125E+02  2.32958644150E+02  8.44549174391E+01  7.2011E-16  9.0
       -1    1    3    3    0  500 -6.18467179021E+00  3.67013159847E+01 -1.09251724978E+02  1.15417399775E+02  0.00000000000E+00  0.0000E+00  9.0
        2    1    3    3  500    0  6.14256229082E+01 -7.69527422569E+00 -1.14819099817E+02  1.30444432912E+02  0.00000000000E+00  0.0000E+00  9.0
        3    1    4    4  504    0 -5.69438196378E+01 -5.48591193432E+01  1.54822902489E+02  1.73845485145E+02  0.00000000000E+00  0.0000E+00  9.0
       -4    1    4    4    0  504  1.70286851981E+00  2.58530775843E+01  5.31294566353E+01  5.91131590048E+01  5.87386917370E-01  0.0000E+00  9.0
</event>
<event>
 8    1   5.1859766E+00   4.9910000E+02  -1.0000000E+00   9.3510000E-02
       11   -1    0    0    0    0  0.00000000000E+00  0.00000000000E+00  2.49211823090E+02  2.49211823090E+02  0.00000000000E+00  0.0000E+00  9.0
      -11   -1    0    0    0    0  0.00000000000E+00  0.00000000000E+00 -2.49902280900E+02  2.49902280900E+02  0.00000000000E+00  0.0000E+00  9.0
       24    2    1    2    0    0 -3.61977700204E+01  1.59115880697E+02 -1.71224428035E+02  2.49688439896E+02  7.99898132097E+01  6.7900E-14  9.0
      -24    2    1    2    0    0  3.61977700204E+01 -1.59115880697E+02  1.70533970225E+02  2.49425664102E+02  8.06423267769E+01  2.0314E-13  9.0
      -13    1    3    3    0    0  8.56787668130E+00  9.62485074822E+00  5.42707655144E+00  1.39825103303E+01  1.05700000000E-01  0.0000E+00  9.0
       14    1    3    3    0    0 -4.47656467017E+01  1.49491029949E+02 -1.76651504586E+02  2.35705929565E+02  0.00000000000E+00  0.0000E+00  9.0
        1    1    4    4  500    0  4.76924738329E+00 -1.47851389893E+02  1.30190011562E+02  1.97058920946E+02  0.00000000000E+00  0.0000E+00  9.0
       -2    1    4    4    0  500  3.14285226371E+01 -1.12644908035E+01  4.03439586630E+01  5.23667431565E+01  0.00000000000E+00  0.0000E+00  9.0
</event>
<event>
 8    1   5.1859766E+00   4.7890000E+02  -1.0000000E+00   9.3970000E-02
       11   -1    0    0    0    0  0.00000000000E+00  0.00000000000E+00  2.36318753050E+02  2.36318753050E+02  0.00000000000E+00  0.0000E+00  9.0
      -11   -1    0    0    0    0  0.00000000000E+00  0.00000000000E+00 -2.42612935050E+02  2.42612935050E+02  0.00000000000E+00  0.0000E+00  9.0
       24    2    1    2    0    0  2.24834623355E+00 -9.37253201421E+00 -2.29253306863E+02  2.41813385275E+02  7.63134010071E+01  1.3727E-14  9.0
      -24    2    1    2    0    0 -2.24834623355E+00  9.37253201421E+00  2.22959124863E+02  2.37118302827E+02  8.01337554258E+01  5.8954E-14  9.0
       -1    1    3    3    0  500 -3.39197973325E+01  1.05194451849E+01 -9.90798783087E+01  1.05252238284E+02  0.00000000000E+00  0.0000E+00  9.0
        2    1    3    3  500    0  3.61681435661E+01 -1.98919771992E+01 -1.30173428554E+02  1.36561146991E+02  0.00000000000E+00  0.0000E+00  9.0
       13    1    4    4    0    0  4.01050665343E+00  9.51244928946E+00 -3.24940946469E+00  1.08231552452E+01  1.05700000000E-01  0.0000E+00  9.0
      -14    1    4    4    0    0 -6.25885288698E+00 -1.39917275254E-01  2.26208534328E+02  2.26295147582E+02  0.00000000000E+00  0.0000E+00  9.0
</event>
<event>
 8    1   5.1859766E+00   4.5630000E+02  -1.0000000E+00   9.4510000E-02
       11   -1    0    0    0    0  0.00000000000E+00  0.00000000000E+00  2.11873464250E+02  2.11873464250E+02  0.00000000000E+00  0.0000E+00  9.0
      -11   -1    0    0    0    0  0.00000000000E+00  0.00000000000E+00 -2.45630843530E+02  2.45630843530E+02  0.00000000000E+00  0.0000E+00  9.0
       24    2    1    2    0    0  8.98500290656E+01 -1.26516826438E+02 -1.64118824693E+02  2.39394926146E+02  7.93436005680E+01  3.1393E-13  9.0
      -24    2    1    2    0    0 -8.98500290656E+01  1.26516826438E+02  1.30361445413E+02  2.18109381641E+02  8.06105502692E+01  7.2559E-14  9.0
       -3    1    3    3    0  500  2.30139167497E+00 -1.91084916308E+01  5.83328216222E+00  2.01111421065E+01  0.00000000000E+00  0.0000E+00  9.0
        4    1    3    3  500    0  8.75486373907E+01 -1.07408334807E+02 -1.69952106855E+02  2.19283784040E+02  5.87386917370E-01  0.0000E+00  9.0
        1    1    4    4  504    0 -9.20136371077E+01  6.47732887017E+01  7.57113723963E+01  1.35625588490E+02  0.00000000000E+00  0.0000E+00  9.0
       -2    1    4    4    0  504  2.16360804202E+00  6.17435377362E+01  5.46500730166E+01  8.24837931515E+01  0.00000000000E+00  0.0000E+00  9.0
</event>
<event>
 8    1   5.1859766E+00   4.7770000E+02  -1.0000000E+00   9.4000000E-02
       11   -1    0    0    0    0  0.00000000000E+00  0.00000000000E+00  2.28993160490E+02  2.28993160490E+02  0.00000000000E+00  0.0000E+00  9.0
      -11   -1    0    0    0    0  0.00000000000E+00  0.00000000000E+00 -2.49112180450E+02  2.49112180450E+02  0.00000000000E+00  0.0000E+00  9.0
       24    2    1    2    0    0  7.91344295993E+01 -1.14044080194E+02 -1.87194838621E+02  2.46439233055E+02  8.01378674983E+01  1.1557E-14  9.0
      -24    2    1    2    0    0 -7.91344295993E+01  1.14044080194E+02  1.67075818661E+02  2.31666107882E+02  8.05390972416E+01  2.3068E-13  9.0
       -1    1    3    3    0  500  7.25844040015E+01 -7.84818817709E+01 -1.80327111854E+02  2.09632461084E+02  0.00000000000E+00  0.0000E+00  9.0
        2    1    3    3  500    0  6.55002559782E+00 -3.55621984231E+01 -6.86772676761E+00  3.68067719716E+01  0.00000000000E+00  0.0000E+00  9.0
        1    1    4    4  504    0 -5.33049252023E+01  1.21172680263E+02  1.26931712216E+02  1.83400908010E+02  0.00000000000E+00  0.0000E+00  9.0
       -2    1    4    4    0  504 -2.58295043970E+01 -7.12860006910E+00  4.01441064452E+01  4.82651998714E+01  0.00000000000E+00  0.0000E+00  9.0
</event>
<event>
 8    1   5.1859766E+00   4.4370000E+02  -1.0000000E+00   9.4830000E-02
       11   -1    0    0    0    0  0.00000000000E+00  0.00000000000E+00  2.50000000000E+02  2.50000000000E+02  0.00000000000E+00  0.0000E+00  9.0
      -11   -1    0    0    0    0  0.00000000000E+00  0.00000000000E+00 -1.96872801140E+02  1.96872801140E+02  0.00000000000E+00  0.0000E+00  9.0
       24    2    1    2    0    0  6.96717383341E+01  7.31341101200E+00 -1.69469404528E+02  2.01312104720E+02  8.30605040484E+01  1.9515E-13  9.0
      -24    2    1    2    0    0 -6.96717383341E+01 -7.31341101200E+00  2.22596603398E+02  2.45560696419E+02  7.64406349951E+01  8.7467E-14  9.0
       -3    1    3    3    0  500  7.85071610433E+01  2.24922209757E+01 -1.63486337895E+02  1.82748617007E+02  0.00000000000E+00  0.0000E+00  9.0
        4    1    3    3  500    0 -8.83542270917E+00 -1.51788099637E+01 -5.98306663228E+00  1.85634877132E+01  5.87386917370E-01  0.0000E+00  9.0
        1    1    4    4  504    0 -1.39941215926E+01 -2.29538230733E+01  1.51719911661E+02  1.54083240579E+02  0.00000000000E+00  0.0000E+00  9.0
       -2    1    4    4    0  504 -5.56776167415E+01  1.56404120613E+01  7.08766917366E+01  9.14774558402E+01  0.00000000000E+00  0.0000E+00  9.0
</event>
<event>
 8    1   5.1859766E+00   3.0570000E+02  -1.0000000E+00   9.9280000E-02
       11   -1    0    0    0    0  0.00000000000E+00  0.00000000000E+00  2.49866313300E+02  2.49866313300E+02  0.00000000000E+00  0.0000E+00  9.0
      -11   -1    0    0    0    0  0.00000000000E+00  0.00000000000E+00 -9.35031465020E+01  9.35031465020E+01  0.00000000000E+00  0.0000E+00  9.0
       24    2    1    2    0    0 -3.55142232256E+01  1.15185283943E+02  2.24023691796E+01  1.46010909902E+02  7.92994954403E+01  9.6011E-15  9.0
      -24    2    1    2    0    0  3.55142232256E+01 -1.15185283943E+02  1.33960797621E+02  1.97358549903E+02  8.04735498902E+01  2.5316E-15  9.0
       -3    1    3    3    0  500 -2.88218944216E+01 -1.46041035317E-02  6.23029094502E+00  2.94875963176E+01  0.00000000000E+00  0.0000E+00  9.0
        4    1    3    3  500    0 -6.69232880397E+00  1.15199888047E+02  1.61720782346E+01  1.16523313584E+02  5.87386917370E-01  0.0000E+00  9.0
        1    1    4    4  504    0 -3.72888251448E+00 -1.09490595977E+01 -1.00361088907E+01  1.53137177898E+01  0.00000000000E+00  0.0000E+00  9.0
       -2    1    4    4    0  504  3.92431057401E+01 -1.04236224346E+02  1.43996906512E+02  1.82044832113E+02  0.00000000000E+00  0.0000E+00  9.0
</event>
<event>
 8    1   5.1859766E+00   4.9290000E+02  -1.0000000E+00   9.3650000E-02
       11   -1    0    0    0    0  0.00000000000E+00  0.00000000000E+00  2.45323106320E+02  2.45323106320E+02  0.00000000000E+00  0.0000E+00  9.0
      -11   -1    0    0    0    0  0.00000000000E+00  0.00000000000E+00 -2.47550877660E+02  2.47550877660E+02  0.00000000000E+00  0.0000E+00  9.0
       24    2    1    2    0    0 -1.74983679947E+01  1.95590611475E+00 -2.33608644220E+02  2.47513659311E+02  7.98748673847E+01  4.1581E-14  9.0
      -24    2    1    2    0    0  1.74983679947E+01 -1.95590611475E+00  2.31380872890E+02  2.45360324669E+02  7.97155074685E+01  6.0040E-14  9.0
       -3    1    3    3    0  500  1.26015249568E+01 -3.23412366717E+01 -1.24444405803E+02  1.29194288405E+02  0.00000000000E+00  0.0000E+00  9.0
        4    1    3    3  500    0 -3.00998929516E+01  3.42971427864E+01 -1.09164238417E+02  1.18319370906E+02  5.87386917370E-01  0.0000E+00  9.0
        1    1    4    4  504    0  2.96864634949E+01 -2.05686896425E+01  4.52087118863E+01  5.78635009212E+01  0.00000000000E+00  0.0000E+00  9.0
       -2    1    4    4    0  504 -1.21880955002E+01  1.86127835278E+01  1.86172161004E+02  1.87496823748E+02  0.00000000000E+00  0.0000E+00  9.0
</event>
<event>
 8    1   5.1859766E+00   5.0000000E+02  -1.0000000E+00   9.3490000E-02
       11   -1    0    0    0    0  0.00000000000E+00  0.00000000000E+00  2.49999156630E+02  2.49999156630E+02  0.00000000000E+00  0.0000E+00  9.0
      -11   -1    0    0    0    0  0.00000000000E+00  0.00000000000E+00 -2.49999864530E+02  2.49999864530E+02  0.00000000000E+00  0.0000E+00  9.0
       24    2    1    2    0    0  1.14369649294E+00  2.55607511383E+01 -2.36444453241E+02  2.50925554019E+02  8.00187112541E+01  5.3538E-15  9.0
      -24    2    1    2    0    0 -1.14369649294E+00 -2.55607511383E+01  2.36443745341E+02  2.49073467152E+02  7.40086973799E+01  5.8873E-14  9.0
       -3    1    3    3    0  500 -2.03350909545E+01  1.35378489701E+01 -2.19920089058E+02  2.21272761203E+02  0.00000000000E+00  0.0000E+00  9.0
        4    1    3    3  500    0  2.14787874475E+01  1.20229021682E+01 -1.65243641827E+01  2.96527928161E+01  5.87386917370E-01  0.0000E+00  9.0
        3    1    4    4  504    0 -1.88963853796E+01 -3.34579172048E+01  2.20808418311E+02  2.24126890847E+02  0.00000000000E+00  0.0000E+00  9.0
       -4    1    4    4    0  504  1.77526888866E+01  7.89716606652E+00  1.56353270304E+01  2.49465763047E+01  5.87386917370E-01  0.0000E+00  9.0
</event>
<event>
 8    1   5.1859766E+00   2.8520000E+02  -1.0000000E+00   1.0020000E-01
       11   -1    0    0    0    0  0.00000000000E+00  0.00000000000E+00  2.49999284270E+02  2.49999284270E+02  0.00000000000E+00  0.0000E+00  9.0
      -11   -1    0    0    0    0  0.00000000000E+00  0.00000000000E+00 -8.13533521570E+01  8.13533521570E+01  0.00000000000E+00  0.0000E+00  9.0
       24    2    1    2    0    0  2.75082378983E+01  6.49990867818E+00 -5.19016954296E+01  9.68020058973E+01  7.66674011049E+01  1.5829E-13  9.0
      -24    2    1    2    0    0 -2.75082378983E+01 -6.49990867818E+00  2.20547627546E+02  2.34550630532E+02  7.46578214389E+01  5.3336E-14  9.0
      -13    1    3    3    0    0  8.93647119227E+00 -3.49444825933E+01 -2.65760016095E+01  4.48025938437E+01  1.05700000000E-01  0.0000E+00  9.0
       14    1    3    3    0    0  1.85717667060E+01  4.14443912715E+01 -2.53256938201E+01  5.19994120536E+01  0.00000000000E+00  0.0000E+00  9.0
        3    1    4    4  500    0 -5.14287930468E+01  7.05928492809E+00  1.32432357502E+02  1.42243044018E+02  0.00000000000E+00  0.0000E+00  9.0
       -4    1    4    4    0  500  2.39205551485E+01 -1.35591936063E+01  8.81152700436E+01  9.23075865144E+01  5.87386917370E-01  0.0000E+00  9.0
</event>
<event>
 8    1   5.1859766E+00   4.8560000E+02  -1.0000000E+00   9.3810000E-02
       11   -1    0    0    0    0  0.00000000000E+00  0.00000000000E+00  2.35818939310E+02  2.35818939310E+02  0.00000000000E+00  0.0000E+00  9.0
      -11   -1    0    0    0    0  0.00000000000E+00  0.00000000000E+00 -2.50000000000E+02  2.50000000000E+02  0.00000000000E+00  0.0000E+00  9.0
       24    2    1    2    0    0 -6.39912685505E+01  6.30177384242E+01 -2.18129719630E+02  2.49233772626E+02  8.04411649876E+01  8.2974E-14  9.0
      -24    2    1    2    0    0  6.39912685505E+01 -6.30177384242E+01  2.03948658940E+02  2.36585166678E+02  7.94441174783E+01  8.0143E-14  9.0
      -13    1    3    3    0    0 -5.34748387951E+01  4.02855268690E+01 -6.24628281530E+01  9.15647210045E+01  1.05700000000E-01  0.0000E+00  9.0
       14    1    3    3    0    0 -1.05164297554E+01  2.27322115552E+01 -1.55666891477E+02  1.57669051621E+02  0.00000000000E+00  0.0000E+00  9.0
        1    1    4    4  500    0  4.72928014676E+01 -5.27005661744E+01  6.45639731546E+01  9.58251813214E+01  0.00000000000E+00  0.0000E+00  9.0
       -2    1    4    4    0  500  1.66984670829E+01 -1.03171722498E+01  1.39384685786E+02  1.40759985357E+02  0.00000000000E+00  0.0000E+00  9.0
</event>
<event>
 8    1   5.1859766E+00   3.0860000E+02  -1.0000000E+00   9.9160000E-02
       11   -1    0    0    0    0  0.00000000000E+00  0.00000000000E+00  9.54018766720E+01  9.54018766720E+01  0.00000000000E+00  0.0000E+00  9.0
      -11   -1    0    0    0    0  0.00000000000E+00  0.00000000000E+00 -2.49602557760E+02  2.49602557760E+02  0.00000000000E+00  0.0000E+00  9.0
       24    2    1    2    0    0 -5.14777623972E+00  1.49400686820E+01 -2.23802523516E+02  2.37730799735E+02  7.86044423545E+01  9.9516E-14  9.0
      -24    2    1    2    0    0  5.14777623972E+00 -1.49400686820E+01  6.96018424253E+01  1.07273634701E+02  8.00843991081E+01  9.5786E-14  9.0
       -3    1    3    3    0  500  5.32598867798E+00  4.64142680264E+01 -1.20920217633E+02  1.29631591305E+02  0.00000000000E+00  0.0000E+00  9.0
        4    1    3    3  500    0 -1.04737649177E+01 -3.14741993444E+01 -1.02882305883E+02  1.08099208430E+02  5.87386917370E-01  0.0000E+00  9.0
        1    1    4    4  504    0 -3.51421887696E+01 -1.12194664513E+01  1.62394173198E+01  4.03059367074E+01  0.00000000000E+00  0.0000E+00  9.0
       -2    1    4    4    0  504  4.02899650094E+01 -3.72060223073E+00  5.33624251055E+01  6.69676979935E+01  0.00000000000E+00  0.0000E+00  9.0
</event>
<event>
 8    1   5.1859766E+00   4.9190000E+02  -1.0000000E+00   9.3670000E-02
       11   -1    0    0    0    0  0.00000000000E+00  0.00000000000E+00  2.49999717250E+02  2.49999717250E+02  0.00000000000E+00  0.0000E+00  9.0
      -11   -1    0    0    0    0  0.00000000000E+00  0.00000000000E+00 -2.41924508410E+02  2.41924508410E+02  0.00000000000E+00  0.0000E+00  9.0
       24    2    1    2    0    0 -2.15935685568E+00 -8.35627851516E-01 -2.22731446934E+02  2.37435947985E+02  8.22263391272E+01  9.9397E-15  9.0
      -24    2    1    2    0    0  2.15935685568E+00  8.35627851516E-01  2.30806655774E+02  2.54488277676E+02  1.07178402811E+02  7.6268E-15  9.0
       -1    1    3    3    0  500 -3.40629515542E+01  1.42322854399E+01 -1.70184440169E+02  1.74142431053E+02  0.00000000000E+00  0.0000E+00  9.0
        2    1    3    3  500    0  3.19035946985E+01 -1.50679132915E+01 -5.25470067650E+01  6.32935169319E+01  0.00000000000E+00  0.0000E+00  9.0
        3    1    4    4  504    0 -1.74333766771E+01  5.03204450931E+01  1.00681151696E+02  1.13898042668E+02  0.00000000000E+00  0.0000E+00  9.0
       -4    1    4    4    0  504  1.95927335328E+01 -4.94848172416E+01  1.30125504078E+02  1.40590235008E+02  5.87386917370E-01  0.0000E+00  9.0
</event>
<event>
 8    1   5.1859766E+00   4.9580000E+02  -1.0000000E+00   9.3580000E-02
       11   -1    0    0    0    0  0.00000000000E+00  0.00000000000E+00  2.50000000000E+02  2.50000000000E+02  0.00000000000E+00  0.0000E+00  9.0
      -11   -1    0    0    0    0  0.00000000000E+00  0.00000000000E+00 -2.45806704270E+02  2.45806704270E+02  0.00000000000E+00  0.0000E+00  9.0
       24    2    1    2    0    0  6.07343153605E+01  3.89637225823E+00 -2.24472907604E+02  2.46179175304E+02  8.06985831722E+01  8.1076E-14  9.0
      -24    2    1    2    0    0 -6.07343153605E+01 -3.89637225823E+00  2.28666203334E+02  2.49627528968E+02  7.95099483858E+01  1.6580E-13  9.0
       -3    1    3    3    0  500  6.58354129668E+01  9.41631200909E+00 -9.21537485377E+01  1.13645421826E+02  0.00000000000E+00  0.0000E+00  9.0
        4    1    3    3  500    0 -5.10109760631E+00 -5.51993975086E+00 -1.32319159066E+02  1.32533753478E+02  5.87386917370E-01  0.0000E+00  9.0
        1    1    4    4  504    0 -1.94058092169E+01  2.26027551253E+01  2.15385562776E+01  3.67611122946E+01  0.00000000000E+00  0.0000E+00  9.0
       -2    1    4    4    0  504 -4.13285061436E+01 -2.64991273835E+01  2.07127647056E+02  2.12866416673E+02  0.00000000000E+00  0.0000E+00  9.0
</event>
<event>
 8    1   5.1859766E+00   4.5950000E+02  -1.0000000E+00   9.4440000E-02
       11   -1    0    0    0    0  0.00000000000E+00  0.00000000000E+00  2.50000000000E+02  2.50000000000E+02  0.00000000000E+00  0.0000E+00  9.0
      -11   -1    0    0    0    0  0.00000000000E+00  0.00000000000E+00 -2.11105692920E+02  2.11105692920E+02  0.00000000000E+00  0.0000E+00  9.0
       24    2    1    2    0    0  7.20334172419E+00  6.07874880870E+00 -1.96117904592E+02  2.12777854474E+02  8.19959970607E+01  3.5795E-14  9.0
      -24    2    1    2    0    0 -7.20334172419E+00 -6.07874880870E+00  2.35012211672E+02  2.48327838437E+02  7.96689173314E+01  1.3986E-13  9.0
       -1    1    3    3    0  500 -3.45665206445E+01  1.73578979576E+01 -7.99705671567E+01  8.88337356095E+01  0.00000000000E+00  0.0000E+00  9.0
        2    1    3    3  500    0  4.17698623687E+01 -1.12791491489E+01 -1.16147337435E+02  1.23944118865E+02  0.00000000000E+00  0.0000E+00  9.0
        1    1    4    4  504    0 -4.22691523840E+01 -1.29287401134E+01  1.40428078289E+02  1.47220510582E+02  0.00000000000E+00  0.0000E+00  9.0
       -2    1    4    4    0  504  3.50658106598E+01  6.84999130466E+00  9.45841333832E+01  1.01107327855E+02  0.00000000000E+00  0.0000E+00  9.0
</event>
<event>
 8    1   5.1859766E+00   4.9850000E+02  -1.0000000E+00   9.3520000E-02
       11   -1    0    0    0    0  0.00000000000E+00  0.00000000000E+00  2.49966257530E+02  2.49966257530E+02  0.00000000000E+00  0.0000E+00  9.0
      -11   -1    0    0    0    0  0.00000000000E+00  0.00000000000E+00 -2.48566231330E+02  2.48566231330E+02  0.00000000000E+00  0.0000E+00  9.0
       24    2    1    2    0    0 -3.85973192619E+01  2.54184517551E+01 -2.30480270961E+02  2.48588584505E+02  8.08658042688E+01  1.1709E-13  9.0
      -24    2    1    2    0    0  3.85973192619E+01 -2.54184517551E+01  2.31880297161E+02  2.49943904355E+02  8.10409302089E+01  8.2805E-14  9.0
       -3    1    3    3    0  500 -2.13167838055E+01 -2.34453890391E+01 -3.91772874473E+01  5.03880084021E+01  0.00000000000E+00  0.0000E+00  9.0
        4    1    3    3  500    0 -1.72805354564E+01  4.88638407942E+01 -1.91302983514E+02  1.98200576103E+02  5.87386917370E-01  0.0000E+00  9.0
        3    1    4    4  504    0  2.65506124198E+01  2.63009723541E+01  1.26996946419E+02  1.32381647392E+02  0.00000000000E+00  0.0000E+00  9.0
       -4    1    4    4    0  504  1.20467068422E+01 -5.17194241092E+01  1.04883350742E+02  1.17562256963E+02  5.87386917370E-01  0.0000E+00  9.0
</event>
<event>
 8    1   5.1859766E+00   4.9660000E+02  -1.0000000E+00   9.3570000E-02
       11   -1    0    0    0    0  0.00000000000E+00  0.00000000000E+00  2.46646722470E+02  2.46646722470E+02  0.00000000000E+00  0.0000E+00  9.0
      -11   -1    0    0    0    0  0.00000000000E+00  0.00000000000E+00 -2.49978798480E+02  2.49978798480E+02  0.00000000000E+00  0.0000E+00  9.0
       24    2    1    2    0    0 -5.49293894931E+01  1.02769474561E+02 -2.05966692948E+02  2.49882488870E+02  8.02507128202E+01  2.1770E-13  9.0
      -24    2    1    2    0    0  5.49293894931E+01 -1.02769474561E+02  2.02634616928E+02  2.46743032083E+02  7.90097030264E+01  1.4549E-13  9.0
       -3    1    3    3    0  500 -2.67239170363E+01  7.28967848640E+01 -5.96592746985E+01  9.79149531115E+01  0.00000000000E+00  0.0000E+00  9.0
        4    1    3    3  500    0 -2.82054724568E+01  2.98726896975E+01 -1.46307418249E+02  1.51967535758E+02  5.87386917370E-01  0.0000E+00  9.0
        3    1    4    4  504    0  9.31928445395E+00 -3.60356238938E+01  1.10859967124E+01  3.88370258291E+01  0.00000000000E+00  0.0000E+00  9.0
       -4    1    4    4    0  504  4.56101050392E+01 -6.67338506677E+01  1.91548620215E+02  2.07906006254E+02  5.87386917370E-01  0.0000E+00  9.0
</event>
<event>
 8    1   5.1859766E+00   4.8170000E+02  -1.0000000E+00   9.3900000E-02
       11   -1    0    0    0    0  0.00000000000E+00  0.00000000000E+00  2.32042040690E+02  2.32042040690E+02  0.00000000000E+00  0.0000E+00  9.0
      -11   -1    0    0    0    0  0.00000000000E+00  0.00000000000E+00 -2.49999999930E+02  2.49999999930E+02  0.00000000000E+00  0.0000E+00  9.0
       24    2    1    2    0    0  9.82392490189E+00 -9.84212444081E+00 -2.35648958632E+02  2.49456312928E+02  8.06513697433E+01  2.2564E-13  9.0
      -24    2    1    2    0    0 -9.82392490189E+00  9.84212444081E+00  2.17690999402E+02  2.32585727686E+02  8.07054681467E+01  3.5348E-14  9.0
       -1    1    3    3    0  500 -1.02845850050E+01  4.68083797741E+00 -2.19648158373E+02  2.19938619641E+02  0.00000000000E+00  0.0000E+00  9.0
        2    1    3    3  500    0  2.01085099069E+01 -1.45229624182E+01 -1.60008002588E+01  2.95176932872E+01  0.00000000000E+00  0.0000E+00  9.0
        1    1    4    4  504    0 -1.63402101502E+01  2.65103367589E+01  2.74736545509E+01  4.15283290924E+01  0.00000000000E+00  0.0000E+00  9.0
       -2    1    4    4    0  504  6.51628524827E+00 -1.66682123181E+01  1.90217344851E+02  1.91057398594E+02  0.00000000000E+00  0.0000E+00  9.0
</event>
<event>
 8    1   5.1859766E+00   4.8100000E+02  -1.0000000E+00   9.3920000E-02
       11   -1    0    0    0    0  0.00000000000E+00  0.00000000000E+00  2.49947294330E+02  2.49947294330E+02  0.00000000000E+00  0.0000E+00  9.0
      -11   -1    0    0    0    0  0.00000000000E+00  0.00000000000E+00 -2.31445370310E+02  2.31445370310E+02  0.00000000000E+00  0.0000E+00  9.0
       24    2    1    2    0    0 -6.37852553327E+00 -1.15106395229E+01 -2.16988693462E+02  2.31827000266E+02  8.05387146150E+01  2.7423E-13  9.0
      -24    2    1    2    0    0  6.37852553327E+00  1.15106395229E+01  2.35490617472E+02  2.49565664369E+02  8.15721122937E+01  1.1132E-13  9.0
      -13    1    3    3    0    0 -1.05422880744E+01 -4.17784373484E+01 -7.41759333949E+01  8.57826202247E+01  1.05700000000E-01  0.0000E+00  9.0
       14    1    3    3    0    0  4.16376254110E+00  3.02677978255E+01 -1.42812760067E+02  1.46044380042E+02  0.00000000000E+00  0.0000E+00  9.0
       13    1    4    4    0    0  3.86655418640E+01 -7.82223156899E+00  1.65091724645E+02  1.69739506754E+02  1.05700000000E-01  0.0000E+00  9.0
      -14    1    4    4    0    0 -3.22870163307E+01  1.93328710918E+01  7.03988928269E+01  7.98261576142E+01  0.00000000000E+00  0.0000E+00  9.0
</event>
<event>
 8    1   5.1859766E+00   4.9650000E+02  -1.0000000E+00   9.3570000E-02
       11   -1    0    0    0    0  0.00000000000E+00  0.00000000000E+00  2.47066386930E+02  2.47066386930E+02  0.00000000000E+00  0.0000E+00  9.0
      -11   -1    0    0    0    0  0.00000000000E+00  0.00000000000E+00 -2.49451182640E+02  2.49451182640E+02  0.00000000000E+00  0.0000E+00  9.0
       24    2    1    2    0    0  1.41313434241E+02  3.78141493427E+01 -1.84973390211E+02  2.49134701143E+02  8.03339756261E+01  9.1876E-15  9.0
      -24    2    1    2    0    0 -1.41313434241E+02 -3.78141493427E+01  1.82588594491E+02  2.47382868433E+02  8.03759427219E+01  5.4150E-14  9.0
       -1    1    3    3    0  500  1.14688068763E+02 -6.50929596156E+00 -1.20360240289E+02  1.66380021316E+02  0.00000000000E+00  0.0000E+00  9.0
        2    1    3    3  500    0  2.66253654777E+01  4.43234453043E+01 -6.46131499218E+01  8.27546798271E+01  0.00000000000E+00  0.0000E+00  9.0
       13    1    4    4    0    0 -1.01459828093E+02 -5.74737142269E+01  1.00072729119E+02  1.53661598422E+02  1.05700000000E-01  0.0000E+00  9.0
      -14    1    4    4    0    0 -3.98536061475E+01  1.96595648842E+01  8.25158653714E+01  9.37212700106E+01  0.00000000000E+00  0.0000E+00  9.0
</event>
<event>
 8    1   5.1859766E+00   4.9980000E+02  -1.0000000E+00   9.3490000E-02
       11   -1    0    0    0    0  0.00000000000E+00  0.00000000000E+00  2.49913600120E+02  2.49913600120E+02  0.00000000000E+00  0.0000E+00  9.0
      -11   -1    0    0    0    0  0.00000000000E+00  0.00000000000E+00 -2.49934418840E+02  2.49934418840E+02  0.00000000000E+00  0.0000E+00  9.0
       24    2    1    2    0    0 -1.05859975282E+02 -1.26147165448E+01 -2.11655742500E+02  2.49703692791E+02  7.86658465927E+01  4.8555E-13  9.0
      -24    2    1    2    0    0  1.05859975282E+02  1.26147165448E+01  2.11634923780E+02  2.50144326166E+02  8.01085358097E+01  7.9424E-15  9.0
      -13    1    3    3    0    0 -9.96154033362E+01  1.11538665913E+01 -1.28379931471E+02  1.62877424153E+02  1.05700000000E-01  0.0000E+00  9.0
       14    1    3    3    0    0 -6.24457194580E+00 -2.37685831361E+01 -8.32758110289E+01  8.68262686380E+01  0.00000000000E+00  0.0000E+00  9.0
       13    1    4    4    0    0  5.75749293830E-01 -2.11019171769E+01  5.04710739497E+01  5.47079781560E+01  1.05700000000E-01  0.0000E+00  9.0
      -14    1    4    4    0    0  1.05284225988E+02  3.37166337217E+01  1.61163849830E+02  1.95436348010E+02  0.00000000000E+00  0.0000E+00  9.0
</event>
<event>
 8    1   5.1859766E+00   5.0000000E+02  -1.0000000E+00   9.3490000E-02
       11   -1    0    0    0    0  0.00000000000E+00  0.00000000000E+00  2.49999999990E+02  2.49999999990E+02  0.00000000000E+00  0.0000E+00  9.0
      -11   -1    0    0    0    0  0.00000000000E+00  0.00000000000E+00 -2.50000000000E+02  2.50000000000E+02  0.00000000000E+00  0.0000E+00  9.0
       24    2    1    2    0    0 -7.08709351825E+01  8.06140370513E+01 -2.10030948260E+02  2.48917321672E+02  7.95331464101E+01  1.1205E-13  9.0
      -24    2    1    2    0    0  7.08709351825E+01 -8.06140370513E+01  2.10030948260E+02  2.51082678321E+02  8.60708992773E+01  1.1188E-14  9.0
       -3    1    3    3    0  500 -2.54167363130E+01  8.33018656845E+01 -1.23280804002E+02  1.50941604426E+02  0.00000000000E+00  0.0000E+00  9.0
        4    1    3    3  500    0 -4.54541988696E+01 -2.68782863323E+00 -8.67501442586E+01  9.79757172462E+01  5.87386917370E-01  0.0000E+00  9.0
        3    1    4    4  504    0  2.86915789882E+01  8.76641018496E+00  9.39604186394E+01  9.86337514406E+01  0.00000000000E+00  0.0000E+00  9.0
       -4    1    4    4    0  504  4.21793561943E+01 -8.93804472362E+01  1.16070529621E+02  1.52448926880E+02  5.87386917370E-01  0.0000E+00  9.0
</event>
<event>
 8    1   5.1859766E+00   3.9790000E+02  -1.0000000E+00   9.6090000E-02
       11   -1    0    0    0    0  0.00000000000E+00  0.00000000000E+00  2.48061305250E+02  2.48061305250E+02  0.00000000000E+00  0.0000E+00  9.0
      -11   -1    0    0    0    0  0.00000000000E+00  0.00000000000E+00 -1.59552257890E+02  1.59552257890E+02  0.00000000000E+00  0.0000E+00  9.0
       24    2    1    2    0    0  3.99058210441E+01 -3.52135301288E+00 -1.37605010981E+02  1.64223332460E+02  8.01828497696E+01  3.1592E-15  9.0
      -24    2    1    2    0    0 -3.99058210441E+01  3.52135301288E+00  2.26114058351E+02  2.43390230679E+02  8.06620265432E+01  3.5188E-14  9.0
       -3    1    3    3    0  500 -2.13285506302E+01 -9.26411513695E+00 -1.68830149304E+01  2.87361635295E+01  0.00000000000E+00  0.0000E+00  9.0
        4    1    3    3  500    0  6.12343716743E+01  5.74276212407E+00 -1.20721996050E+02  1.35487168931E+02  5.87386917370E-01  0.0000E+00  9.0
        1    1    4    4  504    0 -1.44733857391E+00  8.90816944112E+00 -4.10796016431E+00  9.91592700915E+00  0.00000000000E+00  0.0000E+00  9.0
       -2    1    4    4    0  504 -3.84584824702E+01 -5.38681642824E+00  2.30222018515E+02  2.33474303670E+02  0.00000000000E+00  0.0000E+00  9.0
</event>
<event>
 8    1   5.1859766E+00   4.4460000E+02  -1.0000000E+00   9.4810000E-02
       11   -1    0    0    0    0  0.00000000000E+00  0.00000000000E+00  1.97674742500E+02  1.97674742500E+02  0.00000000000E+00  0.0000E+00  9.0
      -11   -1    0    0    0    0  0.00000000000E+00  0.00000000000E+00 -2.50000000000E+02  2.50000000000E+02  0.00000000000E+00  0.0000E+00  9.0
       24    2    1    2    0    0  2.65364755945E+01 -4.01994107085E+01 -2.28927057195E+02  2.47592573353E+02  8.10821047145E+01  6.6273E-14  9.0
      -24    2    1    2    0    0 -2.65364755945E+01  4.01994107085E+01  1.76601799695E+02  2.00082169142E+02  8.07743869951E+01  6.4634E-14  9.0
       -3    1    3    3    0  500  3.28297050283E+01 -5.05380152442E+01 -9.10733224136E+01  1.09207282598E+02  0.00000000000E+00  0.0000E+00  9.0
        4    1    3    3  500    0 -6.29322943380E+00  1.03386045357E+01 -1.37853734782E+02  1.38385290754E+02  5.87386917370E-01  0.0000E+00  9.0
        1    1    4    4  504    0 -2.88146190845E+01  2.69950956170E+01  2.25925256310E+01  4.54910944553E+01  0.00000000000E+00  0.0000E+00  9.0
       -2    1    4    4    0  504  2.27814349001E+00  1.32043150915E+01  1.54009274064E+02  1.54591074686E+02  0.00000000000E+00  0.0000E+00  9.0
</event>
<event>
 8    1   5.1859766E+00   4.9800000E+02  -1.0000000E+00   9.3530000E-02
       11   -1    0    0    0    0  0.00000000000E+00  0.00000000000E+00  2.49922170920E+02  2.49922170920E+02  0.00000000000E+00  0.0000E+00  9.0
      -11   -1    0    0    0    0  0.00000000000E+00  0.00000000000E+00 -2.48118376450E+02  2.48118376450E+02  0.00000000000E+00  0.0000E+00  9.0
       24    2    1    2    0    0 -2.55131331218E+01  8.28082905629E+00 -2.32423792483E+02  2.48165202272E+02  8.27384808612E+01  7.2757E-14  9.0
      -24    2    1    2    0    0  2.55131331218E+01 -8.28082905629E+00  2.34227586963E+02  2.49875345092E+02  8.27987530028E+01  3.0653E-14  9.0
       -3    1    3    3    0  500  3.14224319508E+00 -3.44413775077E+01 -1.11849592442E+02  1.17074393043E+02  0.00000000000E+00  0.0000E+00  9.0
        4    1    3    3  500    0 -2.86553763168E+01  4.27222065640E+01 -1.20574200041E+02  1.31090809229E+02  5.87386917370E-01  0.0000E+00  9.0
        1    1    4    4  504    0  2.87989041024E+01 -4.31785014228E+01  1.34453954569E+02  1.44123647477E+02  0.00000000000E+00  0.0000E+00  9.0
       -2    1    4    4    0  504 -3.28577098061E+00  3.48976723665E+01  9.97736323934E+01  1.05751697615E+02  0.00000000000E+00  0.0000E+00  9.0
</event>
<event>
 8    1   5.1859766E+00   4.9980000E+02  -1.0000000E+00   9.3500000E-02
       11   -1    0    0    0    0  0.00000000000E+00  0.00000000000E+00  2.49999998140E+02  2.49999998140E+02  0.00000000000E+00  0.0000E+00  9.0
      -11   -1    0    0    0    0  0.00000000000E+00  0.00000000000E+00 -2.49768518870E+02  2.49768518870E+02  0.00000000000E+00  0.0000E+00  9.0
       24    2    1    2    0    0 -1.55434994954E+01  1.63542180112E+01 -2.35106868581E+02  2.49816336011E+02  8.13873531981E+01  8.1934E-14  9.0
      -24    2    1    2    0    0  1.55434994954E+01 -1.63542180112E+01  2.35338347861E+02  2.49952181001E+02  8.11350355238E+01  6.8339E-14  9.0
       -1    1    3    3    0  500 -1.12071937566E+01  3.63051151564E+01 -4.62355032734E+01  5.98446684456E+01  0.00000000000E+00  0.0000E+00  9.0
        2    1    3    3  500    0 -4.33630573879E+00 -1.99508971451E+01 -1.88871365308E+02  1.89971667566E+02  0.00000000000E+00  0.0000E+00  9.0
        1    1    4    4  504    0  1.58935736895E+01  2.65205810556E+01  1.62632240289E+02  1.65545137306E+02  0.00000000000E+00  0.0000E+00  9.0
       -2    1    4    4    0  504 -3.50074194109E-01 -4.28747990669E+01  7.27061075726E+01  8.44070436950E+01  0.00000000000E+00  0.0000E+00  9.0
</event>
<event>
 8    1   5.1859766E+00   4.9400000E+02  -1.0000000E+00   9.3620000E-02
       11   -1    0    0    0    0  0.00000000000E+00  0.00000000000E+00  2.49984775630E+02  2.49984775630E+02  0.00000000000E+00  0.0000E+00  9.0
      -11   -1    0    0    0    0  0.00000000000E+00  0.00000000000E+00 -2.44024843210E+02  2.44024843210E+02  0.00000000000E+00  0.0000E+00  9.0
       24    2    1    2    0    0  1.41259289476E+02 -5.50717373009E+01 -1.75722265236E+02  2.44179298409E+02  7.58823573645E+01  6.8010E-14  9.0
      -24    2    1    2    0    0 -1.41259289476E+02  5.50717373009E+01  1.81682197656E+02  2.49830320422E+02  8.01229364445E+01  2.4710E-14  9.0
      -13    1    3    3    0    0  2.07237421845E+01 -3.58869254463E+00 -7.77370076900E+01  8.05320168715E+01  1.05700000000E-01  0.0000E+00  9.0
       14    1    3    3    0    0  1.20535547292E+02 -5.14830447563E+01 -9.79852575465E+01  1.63647281538E+02  0.00000000000E+00  0.0000E+00  9.0
        1    1    4    4  500    0 -1.26563711230E+01  3.64608523961E+01  6.27953354011E+01  7.37077447463E+01  0.00000000000E+00  0.0000E+00  9.0
       -2    1    4    4    0  500 -1.28602918353E+02  1.86108849048E+01  1.18886862255E+02  1.76122575676E+02  0.00000000000E+00  0.0000E+00  9.0
</event>
<event>
 8    1   5.1859766E+00   2.5920000E+02  -1.0000000E+00   1.0140000E-01
       11   -1    0    0    0    0  0.00000000000E+00  0.00000000000E+00  2.49961472570E+02  2.49961472570E+02  0.00000000000E+00  0.0000E+00  9.0
      -11   -1    0    0    0    0  0.00000000000E+00  0.00000000000E+00 -6.71708271660E+01  6.71708271660E+01  0.00000000000E+00  0.0000E+00  9.0
       24    2    1    2    0    0  3.73431033481E+01 -2.44475889685E+01 -1.93609546403E+01  9.49063334022E+01  8.14872602388E+01  2.5320E-13  9.0
      -24    2    1    2    0    0 -3.73431033481E+01  2.44475889685E+01  2.02151600050E+02  2.22225966340E+02  8.07893479286E+01  4.5581E-14  9.0
       -3    1    3    3    0  500  1.78843548890E+01 -5.02189476475E+01 -2.96625327806E+01  6.10053989707E+01  0.00000000000E+00  0.0000E+00  9.0
        4    1    3    3  500    0  1.94587484591E+01  2.57713586790E+01  1.03015781403E+01  3.39009344315E+01  5.87386917370E-01  0.0000E+00  9.0
        3    1    4    4  504    0 -4.26186956036E+01  6.98765112619E+00  3.94165269744E+01  5.84708737914E+01  0.00000000000E+00  0.0000E+00  9.0
       -4    1    4    4    0  504  5.27559225554E+00  1.74599378423E+01  1.62735073076E+02  1.63755092548E+02  5.87386917370E-01  0.0000E+00  9.0
</event>
<event>
 8    1   5.1859766E+00   5.0000000E+02  -1.0000000E+00   9.3490000E-02
       11   -1    0    0    0    0  0.00000000000E+00  0.00000000000E+00  2.49999999980E+02  2.49999999980E+02  0.00000000000E+00  0.0000E+00  9.0
      -11   -1    0    0    0    0  0.00000000000E+00  0.00000000000E+00 -2.49991557490E+02  2.49991557490E+02  0.00000000000E+00  0.0000E+00  9.0
       24    2    1    2    0    0 -1.30213200899E+01  5.71657829884E+01 -2.29696993304E+02  2.50515386568E+02  8.09923987347E+01  7.4293E-14  9.0
      -24    2    1    2    0    0  1.30213200899E+01 -5.71657829884E+01  2.29705435794E+02  2.49476170900E+02  7.76935717549E+01  5.9885E-14  9.0
       -1    1    3    3    0  500 -1.62668724812E+01  3.86706236198E+01 -3.42213570201E+01  5.41399071644E+01  0.00000000000E+00  0.0000E+00  9.0
        2    1    3    3  500    0  3.24555239125E+00  1.84951593686E+01 -1.95475636284E+02  1.96375479403E+02  0.00000000000E+00  0.0000E+00  9.0
        3    1    4    4  504    0 -2.21307161320E+01 -5.45082915166E+01  1.72736646502E+02  1.82479783771E+02  0.00000000000E+00  0.0000E+00  9.0
       -4    1    4    4    0  504  3.51520362219E+01 -2.65749147179E+00  5.69687892923E+01  6.69963871286E+01  5.87386917370E-01  0.0000E+00  9.0
</event>
<event>
 8    1   5.1859766E+00   5.0000000E+02  -1.0000000E+00   9.3490000E-02
       11   -1    0    0    0    0  0.00000000000E+00  0.00000000000E+00  2.50000000000E+02  2.50000000000E+02  0.00000000000E+00  0.0000E+00  9.0
      -11   -1    0    0    0    0  0.00000000000E+00  0.00000000000E+00 -2.50000000000E+02  2.50000000000E+02  0.00000000000E+00  0.0000E+00  9.0
       24    2    1    2    0    0 -4.41132023591E+01  1.14394827027E+02 -2.02317514914E+02  2.50135678849E+02  8.12608757011E+01  6.1877E-14  9.0
      -24    2    1    2    0    0  4.41132023591E+01 -1.14394827027E+02  2.02317514914E+02  2.49864321151E+02  8.04217077065E+01  1.9952E-13  9.0
       -3    1    3    3    0  500 -2.58478650792E+01  5.77058700425E+01 -1.72098310225E+02  1.83346415151E+02  0.00000000000E+00  0.0000E+00  9.0
        4    1    3    3  500    0 -1.82653372798E+01  5.66889569848E+01 -3.02192046889E+01  6.67892636986E+01  5.87386917370E-01  0.0000E+00  9.0
        3    1    4    4  504    0 -1.45897038769E+01 -7.31848647017E+01  1.10829407473E+02  1.33611531843E+02  0.00000000000E+00  0.0000E+00  9.0
       -4    1    4    4    0  504  5.87029062360E+01 -4.12099623256E+01  9.14881074407E+01  1.16252789308E+02  5.87386917370E-01  0.0000E+00  9.0
</event>
<event>
 8    1   5.1859766E+00   4.8480000E+02  -1.0000000E+00   9.3830000E-02
       11   -1    0    0    0    0  0.00000000000E+00  0.00000000000E+00  2.49999998650E+02  2.49999998650E+02  0.00000000000E+00  0.0000E+00  9.0
      -11   -1    0    0    0    0  0.00000000000E+00  0.00000000000E+00 -2.35078038470E+02  2.35078038470E+02  0.00000000000E+00  0.0000E+00  9.0
       24    2    1    2    0    0  7.83747786917E+00 -2.00134843107E+01 -2.18608099207E+02  2.35962540215E+02  8.61791954716E+01  4.3470E-14  9.0
      -24    2    1    2    0    0 -7.83747786917E+00  2.00134843107E+01  2.33530059387E+02  2.49115496900E+02  8.40254517698E+01  6.1984E-14  9.0
       -1    1    3    3    0  500  1.67609117470E+01 -3.86523110589E+00 -2.16736621182E+02  2.17418102134E+02  0.00000000000E+00  0.0000E+00  9.0
        2    1    3    3  500    0 -8.92343387780E+00 -1.61482532048E+01 -1.87147802485E+00  1.85444380809E+01  0.00000000000E+00  0.0000E+00  9.0
        1    1    4    4  504    0 -1.75750667583E+01  8.10001603793E+00  2.32913889558E+02  2.33716437549E+02  0.00000000000E+00  0.0000E+00  9.0
       -2    1    4    4    0  504  9.73758888914E+00  1.19134682728E+01  6.16169828712E-01  1.53990593517E+01  0.00000000000E+00  0.0000E+00  9.0
</event>
<event>
 8    1   5.1859766E+00   4.9540000E+02  -1.0000000E+00   9.3590000E-02
       11   -1    0    0    0    0  0.00000000000E+00  0.00000000000E+00  2.45559697670E+02  2.45559697670E+02  0.00000000000E+00  0.0000E+00  9.0
      -11   -1    0    0    0    0  0.00000000000E+00  0.00000000000E+00 -2.49883800600E+02  2.49883800600E+02  0.00000000000E+00  0.0000E+00  9.0
       24    2    1    2    0    0 -7.91466569889E+01 -4.46998290858E+01 -2.17940484417E+02  2.49677686507E+02  8.11087193775E+01  1.8306E-14  9.0
      -24    2    1    2    0    0  7.91466569889E+01  4.46998290858E+01  2.13616381497E+02  2.45765811762E+02  8.06635466273E+01  1.0389E-13  9.0
       -1    1    3    3    0  500 -8.53235163478E+01 -1.01155807609E+01 -1.41370820779E+02  1.65433178002E+02  0.00000000000E+00  0.0000E+00  9.0
        2    1    3    3  500    0  6.17685935891E+00 -3.45842483249E+01 -7.65696636372E+01  8.42445085050E+01  0.00000000000E+00  0.0000E+00  9.0
        1    1    4    4  504    0  2.81635523627E+01 -1.10964125670E+01  1.28137059519E+02  1.31664050050E+02  0.00000000000E+00  0.0000E+00  9.0
       -2    1    4    4    0  504  5.09831046262E+01  5.57962416529E+01  8.54793219780E+01  1.14101761712E+02  0.00000000000E+00  0.0000E+00  9.0
</event>
<event>
 8    1   5.1859766E+00   4.9420000E+02  -1.0000000E+00   9.3620000E-02
       11   -1    0    0    0    0  0.00000000000E+00  0.00000000000E+00  2.44765505590E+02  2.44765505590E+02  0.00000000000E+00  0.0000E+00  9.0
      -11   -1    0    0    0    0  0.00000000000E+00  0.00000000000E+00 -2.49480117320E+02  2.49480117320E+02  0.00000000000E+00  0.0000E+00  9.0
       24    2    1    2    0    0 -1.65462798678E+02  1.66111467361E+02  6.79467651136E+00  2.47684516630E+02  7.95644067063E+01  7.5462E-15  9.0
      -24    2    1    2    0    0  1.65462798678E+02 -1.66111467361E+02 -1.15092882400E+01  2.46561106279E+02  7.54251819924E+01  8.6408E-14  9.0
       -1    1    3    3    0  500 -4.47538811979E+01  2.93758281455E+01  3.37880784677E+01  6.33046870939E+01  0.00000000000E+00  0.0000E+00  9.0
        2    1    3    3  500    0 -1.20708917480E+02  1.36735639215E+02 -2.69934019563E+01  1.84379829537E+02  0.00000000000E+00  0.0000E+00  9.0
        1    1    4    4  504    0  9.61473840752E+00 -4.20825327060E+01 -1.91788624842E+01  4.72357017496E+01  0.00000000000E+00  0.0000E+00  9.0
       -2    1    4    4    0  504  1.55848060270E+02 -1.24028934655E+02  7.66957424423E+00  1.99325404529E+02  0.00000000000E+00  0.0000E+00  9.0
</event>
<event>
 8    1   5.1859766E+00   4.6180000E+02  -1.0000000E+00   9.4380000E-02
       11   -1    0    0    0    0  0.00000000000E+00  0.00000000000E+00  2.13301350770E+02  2.13301350770E+02  0.00000000000E+00  0.0000E+00  9.0
      -11   -1    0    0    0    0  0.00000000000E+00  0.00000000000E+00 -2.49999998850E+02  2.49999998850E+02  0.00000000000E+00  0.0000E+00  9.0
       24    2    1    2    0    0  5.08538261055E+00  7.71181076155E+00 -2.35795088296E+02  2.48356858761E+02  7.74368935835E+01  1.2730E-14  9.0
      -24    2    1    2    0    0 -5.08538261055E+00 -7.71181076155E+00  1.99096440216E+02  2.14944490859E+02  8.04761362287E+01  5.9989E-15  9.0
       -3    1    3    3    0  500  1.64178125440E+01 -1.90230107286E+01 -2.03002995769E+02  2.04552281330E+02  0.00000000000E+00  0.0000E+00  9.0
        4    1    3    3  500    0 -1.13324299335E+01  2.67348214901E+01 -3.27920925268E+01  4.38045774319E+01  5.87386917370E-01  0.0000E+00  9.0
        1    1    4    4  504    0 -4.19924400749E+01 -1.05632113393E+01  1.21128836365E+02  1.28635692777E+02  0.00000000000E+00  0.0000E+00  9.0
       -2    1    4    4    0  504  3.69070574644E+01  2.85140057773E+00  7.79676038514E+01  8.63087980815E+01  0.00000000000E+00  0.0000E+00  9.0
</event>
<event>
 8    1   5.1859766E+00   5.0000000E+02  -1.0000000E+00   9.3490000E-02
       11   -1    0    0    0    0  0.00000000000E+00  0.00000000000E+00  2.50000000000E+02  2.50000000000E+02  0.00000000000E+00  0.0000E+00  9.0
      -11   -1    0    0    0    0  0.00000000000E+00  0.00000000000E+00 -2.49999999740E+02  2.49999999740E+02  0.00000000000E+00  0.0000E+00  9.0
       24    2    1    2    0    0 -1.14666656396E+01  4.18881881142E+01 -2.32847498200E+02  2.50310142818E+02  8.09388995203E+01  1.3942E-13  9.0
      -24    2    1    2    0    0  1.14666656396E+01 -4.18881881142E+01  2.32847498460E+02  2.49689856917E+02  7.89997619230E+01  1.4651E-13  9.0
       -3    1    3    3    0  500 -4.11517628790E+01  2.94412761105E+00 -8.34570089684E+01  9.30978400469E+01  0.00000000000E+00  0.0000E+00  9.0
        4    1    3    3  500    0  2.96850972394E+01  3.89440605032E+01 -1.49390489231E+02  1.57212302772E+02  5.87386917370E-01  0.0000E+00  9.0
        1    1    4    4  504    0  3.99425134122E+01 -4.06622716990E+01  1.88874015914E+02  1.97287147591E+02  0.00000000000E+00  0.0000E+00  9.0
       -2    1    4    4    0  504 -2.84758477726E+01 -1.22591641518E+00  4.39734825460E+01  5.24027093255E+01  0.00000000000E+00  0.0000E+00  9.0
</event>
<event>
 8    1   5.1859766E+00   4.2720000E+02  -1.0000000E+00   9.5260000E-02
       11   -1    0    0    0    0  0.00000000000E+00  0.00000000000E+00  1.82508386140E+02  1.82508386140E+02  0.00000000000E+00  0.0000E+00  9.0
      -11   -1    0    0    0    0  0.00000000000E+00  0.00000000000E+00 -2.49999997520E+02  2.49999997520E+02  0.00000000000E+00  0.0000E+00  9.0
       24    2    1    2    0    0 -4.41917958763E+01  1.84598913619E+02 -9.09456097742E+01  2.25300092240E+02  8.03701057235E+01  5.0998E-14  9.0
      -24    2    1    2    0    0  4.41917958763E+01 -1.84598913619E+02  2.34539983932E+01  2.07208291416E+02  7.97214667365E+01  1.2920E-14  9.0
       -3    1    3    3    0  500 -2.05146244692E+00  1.34258446917E+02 -3.42953837807E+01  1.38584675976E+02  0.00000000000E+00  0.0000E+00  9.0
        4    1    3    3  500    0 -4.21403334294E+01  5.03404667023E+01 -5.66502259935E+01  8.67154162640E+01  5.87386917370E-01  0.0000E+00  9.0
        1    1    4    4  504    0 -2.34354338987E+01 -5.12926861372E+01  5.80323994872E+00  5.66907118239E+01  0.00000000000E+00  0.0000E+00  9.0
       -2    1    4    4    0  504  6.76272297750E+01 -1.33306227482E+02  1.76507584444E+01  1.50517579592E+02  0.00000000000E+00  0.0000E+00  9.0
</event>
<event>
 8    1   5.1859766E+00   4.8830000E+02  -1.0000000E+00   9.3750000E-02
       11   -1    0    0    0    0  0.00000000000E+00  0.00000000000E+00  2.38473081970E+02  2.38473081970E+02  0.00000000000E+00  0.0000E+00  9.0
      -11   -1    0    0    0    0  0.00000000000E+00  0.00000000000E+00 -2.49970254240E+02  2.49970254240E+02  0.00000000000E+00  0.0000E+00  9.0
       24    2    1    2    0    0 -1.04731338909E+01 -5.33925922083E+01 -2.29693127729E+02  2.49590953447E+02  8.10941161875E+01  1.3756E-13  9.0
      -24    2    1    2    0    0  1.04731338909E+01  5.33925922083E+01  2.18195955449E+02  2.38852382761E+02  8.05017412240E+01  1.8039E-13  9.0
       -1    1    3    3    0  500 -4.31651505270E+01 -1.76551189232E+01 -1.41306106657E+02  1.48803055152E+02  0.00000000000E+00  0.0000E+00  9.0
        2    1    3    3  500    0  3.26920166360E+01 -3.57374732852E+01 -8.83870210728E+01  1.00787898295E+02  0.00000000000E+00  0.0000E+00  9.0
        1    1    4    4  504    0  2.07725042956E+01  8.32302813382E+00  8.20841865493E+00  2.38358525931E+01  0.00000000000E+00  0.0000E+00  9.0
       -2    1    4    4    0  504 -1.02993704047E+01  4.50695640745E+01  2.09987536794E+02  2.15016530168E+02  0.00000000000E+00  0.0000E+00  9.0
</event>
<event>
 8    1   5.1859766E+00   4.9780000E+02  -1.0000000E+00   9.3540000E-02
       11   -1    0    0    0    0  0.00000000000E+00  0.00000000000E+00  2.47789349910E+02  2.47789349910E+02  0.00000000000E+00  0.0000E+00  9.0
      -11   -1    0    0    0    0  0.00000000000E+00  0.00000000000E+00 -2.50000000000E+02  2.50000000000E+02  0.00000000000E+00  0.0000E+00  9.0
       24    2    1    2    0    0  2.05991059305E+01  1.67855332128E+02 -1.65299786876E+02  2.49504635702E+02  7.95538057348E+01  2.2176E-13  9.0
      -24    2    1    2    0    0 -2.05991059305E+01 -1.67855332128E+02  1.63089136776E+02  2.48284714205E+02  8.02963080397E+01  1.6570E-13  9.0
       -1    1    3    3    0  500  6.63648704574E+00  2.53198391036E+01  5.35459713422E+00  2.67172027542E+01  0.00000000000E+00  0.0000E+00  9.0
        2    1    3    3  500    0  1.39626188848E+01  1.42535493024E+02 -1.70654384010E+02  2.22787432948E+02  0.00000000000E+00  0.0000E+00  9.0
        1    1    4    4  504    0 -3.98311896448E+01 -1.19458520490E+02  1.47462955509E+02  1.93912828440E+02  0.00000000000E+00  0.0000E+00  9.0
       -2    1    4    4    0  504  1.92320837143E+01 -4.83968116373E+01  1.56261812670E+01  5.43718857649E+01  0.00000000000E+00  0.0000E+00  9.0
</event>
<event>
 8    1   5.1859766E+00   4.8350000E+02  -1.0000000E+00   9.3860000E-02
       11   -1    0    0    0    0  0.00000000000E+00  0.00000000000E+00  2.33770635360E+02  2.33770635360E+02  0.00000000000E+00  0.0000E+00  9.0
      -11   -1    0    0    0    0  0.00000000000E+00  0.00000000000E+00 -2.50000000000E+02  2.50000000000E+02  0.00000000000E+00  0.0000E+00  9.0
       24    2    1    2    0    0 -1.16938927910E+01  2.51379135918E+01 -2.34741805406E+02  2.49192229106E+02  7.88948034600E+01  8.9178E-14  9.0
      -24    2    1    2    0    0  1.16938927910E+01 -2.51379135918E+01  2.18512440766E+02  2.34578406261E+02  8.06887853800E+01  2.9482E-13  9.0
       -3    1    3    3    0  500 -2.43295823242E+01 -1.56589056711E+01 -1.64178799539E+02  1.66708752383E+02  0.00000000000E+00  0.0000E+00  9.0
        4    1    3    3  500    0  1.26356895333E+01  4.07968192629E+01 -7.05630058674E+01  8.24834767234E+01  5.87386917370E-01  0.0000E+00  9.0
       13    1    4    4    0    0 -7.71037159288E+00 -4.60465744863E+01  1.83861017557E+02  1.89696130170E+02  1.05700000000E-01  0.0000E+00  9.0
      -14    1    4    4    0    0  1.94042643838E+01  2.09086608944E+01  3.46514232093E+01  4.48822760910E+01  0.00000000000E+00  0.0000E+00  9.0
</event>
<event>
 8    1   5.1859766E+00   4.8850000E+02  -1.0000000E+00   9.3750000E-02
       11   -1    0    0    0    0  0.00000000000E+00  0.00000000000E+00  2.49993780260E+02  2.49993780260E+02  0.00000000000E+00  0.0000E+00  9.0
      -11   -1    0    0    0    0  0.00000000000E+00  0.00000000000E+00 -2.38638131770E+02  2.38638131770E+02  0.00000000000E+00  0.0000E+00  9.0
       24    2    1    2    0    0 -9.48051119931E+00  3.34030623026E+01 -2.23520155526E+02  2.38400922292E+02  7.52867528794E+01  1.6750E-13  9.0
      -24    2    1    2    0    0  9.48051119931E+00 -3.34030623026E+01  2.34875804026E+02  2.50230989736E+02  7.90143040429E+01  9.3882E-14  9.0
       -1    1    3    3    0  500  1.56950509029E+01  1.75461291094E+01 -1.53242288198E+01  2.80897358210E+01  0.00000000000E+00  0.0000E+00  9.0
        2    1    3    3  500    0 -2.51755621023E+01  1.58569331932E+01 -2.08195926707E+02  2.10311186471E+02  0.00000000000E+00  0.0000E+00  9.0
        3    1    4    4  504    0  1.11759279224E+01  5.97323651992E+00  6.25497036989E-01  1.26874806795E+01  0.00000000000E+00  0.0000E+00  9.0
       -4    1    4    4    0  504 -1.69541672305E+00 -3.93762988225E+01  2.34250306989E+02  2.37543509057E+02  5.87386917370E-01  0.0000E+00  9.0
</event>
<event>
 8    1   5.1859766E+00   3.3470000E+02  -1.0000000E+00   9.8160000E-02
       11   -1    0    0    0    0  0.00000000000E+00  0.00000000000E+00  1.25993843080E+02  1.25993843080E+02  0.00000000000E+00  0.0000E+00  9.0
      -11   -1    0    0    0    0  0.00000000000E+00  0.00000000000E+00 -2.22281296840E+02  2.22281296840E+02  0.00000000000E+00  0.0000E+00  9.0
       24    2    1    2    0    0 -2.57690231757E+01  1.96805365318E+01 -1.98164517086E+02  2.15943198172E+02  7.94413175326E+01  1.0389E-13  9.0
      -24    2    1    2    0    0  2.57690231757E+01 -1.96805365318E+01  1.01877063316E+02  1.32331941745E+02  7.79835925216E+01  1.5115E-13  9.0
       -1    1    3    3    0  500  7.61986659254E+00  1.28167847710E+01 -4.31760304818E-02  1.49108753239E+01  0.00000000000E+00  0.0000E+00  9.0
        2    1    3    3  500    0 -3.33888897683E+01  6.86375176084E+00 -1.98121341055E+02  2.01032322848E+02  0.00000000000E+00  0.0000E+00  9.0
        1    1    4    4  504    0  1.65197060368E+01  2.23217195736E+01  7.87430605657E+01  8.34962839863E+01  0.00000000000E+00  0.0000E+00  9.0
       -2    1    4    4    0  504  9.24931713894E+00 -4.20022561055E+01  2.31340027498E+01  4.88356577586E+01  0.00000000000E+00  0.0000E+00  9.0
</event>
<event>
 8    1   5.1859766E+00   4.9960000E+02  -1.0000000E+00   9.3500000E-02
       11   -1    0    0    0    0  0.00000000000E+00  0.00000000000E+00  2.49603442060E+02  2.49603442060E+02  0.00000000000E+00  0.0000E+00  9.0
      -11   -1    0    0    0    0  0.00000000000E+00  0.00000000000E+00 -2.49999999990E+02  2.49999999990E+02  0.00000000000E+00  0.0000E+00  9.0
       24    2    1    2    0    0  3.31066009572E+01 -2.34221145282E+00 -2.34243697910E+02  2.50177942434E+02  8.13471566105E+01  1.7159E-13  9.0
      -24    2    1    2    0    0 -3.31066009572E+01  2.34221145282E+00  2.33847139980E+02  2.49425499618E+02  8.01689590885E+01  1.7336E-14  9.0
       -3    1    3    3    0  500  4.47657786521E+01 -2.32993785612E+01 -8.37164039093E+01  9.77510729515E+01  0.00000000000E+00  0.0000E+00  9.0
        4    1    3    3  500    0 -1.16591776948E+01  2.09571671084E+01 -1.50527294001E+02  1.52426869483E+02  5.87386917370E-01  0.0000E+00  9.0
        1    1    4    4  504    0 -3.01550666908E+00  3.48957121178E+01  1.55597489242E+02  1.59491011229E+02  0.00000000000E+00  0.0000E+00  9.0
       -2    1    4    4    0  504 -3.00910942882E+01 -3.25535006650E+01  7.82496507384E+01  8.99344883884E+01  0.00000000000E+00  0.0000E+00  9.0
</event>
<event>
 8    1   5.1859766E+00   4.6250000E+02  -1.0000000E+00   9.4360000E-02
       11   -1    0    0    0    0  0.00000000000E+00  0.00000000000E+00  2.13914566240E+02  2.13914566240E+02  0.00000000000E+00  0.0000E+00  9.0
      -11   -1    0    0    0    0  0.00000000000E+00  0.00000000000E+00 -2.49991020340E+02  2.49991020340E+02  0.00000000000E+00  0.0000E+00  9.0
       24    2    1    2    0    0 -1.03760610989E+01 -1.35568208397E+01 -2.35381322706E+02  2.48491488632E+02  7.77959048315E+01  4.3430E-14  9.0
      -24    2    1    2    0    0  1.03760610989E+01  1.35568208397E+01  1.99304868606E+02  2.15414097954E+02  7.99334280025E+01  4.0776E-14  9.0
       -1    1    3    3    0  500 -2.93535892693E+01  1.28288449262E+01 -4.43187467385E+01  5.46842187253E+01  0.00000000000E+00  0.0000E+00  9.0
        2    1    3    3  500    0  1.89775281704E+01 -2.63856657659E+01 -1.91062575967E+02  1.93807269906E+02  0.00000000000E+00  0.0000E+00  9.0
       13    1    4    4    0    0  7.60274053120E+00 -1.89441131658E+01  1.71036776886E+02  1.72250606116E+02  1.05700000000E-01  0.0000E+00  9.0
      -14    1    4    4    0    0  2.77332056770E+00  3.25009340056E+01  2.82680917199E+01  4.31634918385E+01  0.00000000000E+00  0.0000E+00  9.0
</event>
<event>
 8    1   5.1859766E+00   4.9000000E+02  -1.0000000E+00   9.3720000E-02
       11   -1    0    0    0    0  0.00000000000E+00  0.00000000000E+00  2.50000000000E+02  2.50000000000E+02  0.00000000000E+00  0.0000E+00  9.0
      -11   -1    0    0    0    0  0.00000000000E+00  0.00000000000E+00 -2.40078156560E+02  2.40078156560E+02  0.00000000000E+00  0.0000E+00  9.0
       24    2    1    2    0    0  6.08083567459E+01  8.29410634397E+01 -2.02283928586E+02  2.41068959944E+02  8.13546521695E+01  3.7333E-15  9.0
      -24    2    1    2    0    0 -6.08083567459E+01 -8.29410634397E+01  2.12205772026E+02  2.49009196616E+02  7.99838362631E+01  2.0958E-14  9.0
       -3    1    3    3    0  500  5.42179889738E+01  3.81973147808E+01 -1.77516917824E+02  1.89501665688E+02  0.00000000000E+00  0.0000E+00  9.0
        4    1    3    3  500    0  6.59036777202E+00  4.47437486589E+01 -2.47670107626E+01  5.15672942564E+01  5.87386917370E-01  0.0000E+00  9.0
       13    1    4    4    0    0 -7.53080379571E+01 -6.76768234926E+01  1.33593685773E+02  1.67626779096E+02  1.05700000000E-01  0.0000E+00  9.0
      -14    1    4    4    0    0  1.44996812112E+01 -1.52642399471E+01  7.86120862529E+01  8.13824175202E+01  0.00000000000E+00  0.0000E+00  9.0
</event>
<event>
 8    1   5.1859766E+00   4.9520000E+02  -1.0000000E+00   9.3600000E-02
       11   -1    0    0    0    0  0.00000000000E+00  0.00000000000E+00  2.49663926730E+02  2.49663926730E+02  0.00000000000E+00  0.0000E+00  9.0
      -11   -1    0    0    0    0  0.00000000000E+00  0.00000000000E+00 -2.45506333370E+02  2.45506333370E+02  0.00000000000E+00  0.0000E+00  9.0
       24    2    1    2    0    0  4.95452809226E+00 -1.46333162623E+02 -1.81076247510E+02  2.45706986501E+02  7.83924356740E+01  5.1950E-18  9.0
      -24    2    1    2    0    0 -4.95452809226E+00  1.46333162623E+02  1.85233840870E+02  2.49463273593E+02  8.05133978678E+01  1.8238E-13  9.0
       -1    1    3    3    0  500  3.29733095678E+01 -7.40391765883E+01 -1.28859240912E+02  1.52229244175E+02  0.00000000000E+00  0.0000E+00  9.0
        2    1    3    3  500    0 -2.80187814756E+01 -7.22939860350E+01 -5.22170065984E+01  9.34777423257E+01  0.00000000000E+00  0.0000E+00  9.0
       13    1    4    4    0    0 -2.40730879110E+01  3.28310583515E+01  9.45113315356E+01  1.02906729203E+02  1.05700000000E-01  0.0000E+00  9.0
      -14    1    4    4    0    0  1.91185598187E+01  1.13502104272E+02  9.07225093344E+01  1.46556544390E+02  0.00000000000E+00  0.0000E+00  9.0
</event>
<event>
 8    1   5.1859766E+00   5.0000000E+02  -1.0000000E+00   9.3490000E-02
       11   -1    0    0    0    0  0.00000000000E+00  0.00000000000E+00  2.49992208190E+02  2.49992208190E+02  0.00000000000E+00  0.0000E+00  9.0
      -11   -1    0    0    0    0  0.00000000000E+00  0.00000000000E+00 -2.49997699380E+02  2.49997699380E+02  0.00000000000E+00  0.0000E+00  9.0
       24    2    1    2    0    0  9.18362984200E+01  1.08819337195E+02 -1.89786792354E+02  2.50517349208E+02  8.04012552571E+01  9.6793E-14  9.0
      -24    2    1    2    0    0 -9.18362984200E+01 -1.08819337195E+02  1.89781301174E+02  2.49472558363E+02  7.70977382649E+01  1.8928E-14  9.0
       -1    1    3    3    0  500  3.31605468394E+01  9.23183263312E+01 -8.75038362082E+01  1.31450433983E+02  0.00000000000E+00  0.0000E+00  9.0
        2    1    3    3  500    0  5.86757515805E+01  1.65010108640E+01 -1.02282956146E+02  1.19066915224E+02  0.00000000000E+00  0.0000E+00  9.0
        3    1    4    4  504    0 -7.64801722898E+01 -3.30971706842E+01  8.25079278676E+01  1.17269764312E+02  0.00000000000E+00  0.0000E+00  9.0
       -4    1    4    4    0  504 -1.53561261302E+01 -7.57221665111E+01  1.07273373307E+02  1.32202794051E+02  5.87386917370E-01  0.0000E+00  9.0
</event>
<event>
 8    1   5.1859766E+00   4.9880000E+02  -1.0000000E+00   9.3520000E-02
       11   -1    0    0    0    0  0.00000000000E+00  0.00000000000E+00  2.50000000000E+02  2.50000000000E+02  0.00000000000E+00  0.0000E+00  9.0
      -11   -1    0    0    0    0  0.00000000000E+00  0.00000000000E+00 -2.48824018800E+02  2.48824018800E+02  0.00000000000E+00  0.0000E+00  9.0
       24    2    1    2    0    0 -7.23958420214E+01 -4.60476822640E+01 -2.19159435883E+02  2.48977604891E+02  8.12246416838E+01  3.1836E-14  9.0
      -24    2    1    2    0    0  7.23958420214E+01  4.60476822640E+01  2.20335417073E+02  2.49846413915E+02  8.07092779389E+01  5.3930E-14  9.0
       -3    1    3    3    0  500 -6.90916663529E+01 -3.23182135919E+01 -2.21844299990E+02  2.34591173592E+02  0.00000000000E+00  0.0000E+00  9.0
        4    1    3    3  500    0 -3.30417566842E+00 -1.37294686721E+01  2.68486410641E+00  1.43864312992E+01  5.87386917370E-01  0.0000E+00  9.0
        3    1    4    4  504    0  7.83566725236E+01  4.63137639009E+01  2.24696852545E+02  2.42432275902E+02  0.00000000000E+00  0.0000E+00  9.0
       -4    1    4    4    0  504 -5.96083050223E+00 -2.66081636902E-01 -4.36143547120E+00  7.41413801288E+00  5.87386917370E-01  0.0000E+00  9.0
</event>
<event>
 8    1   5.1859766E+00   4.8690000E+02  -1.0000000E+00   9.3790000E-02
       11   -1    0    0    0    0  0.00000000000E+00  0.00000000000E+00  2.37146737280E+02  2.37146737280E+02  0.00000000000E+00  0.0000E+00  9.0
      -11   -1    0    0    0    0  0.00000000000E+00  0.00000000000E+00 -2.49901000860E+02  2.49901000860E+02  0.00000000000E+00  0.0000E+00  9.0
       24    2    1    2    0    0  9.32524312687E+01  1.37361885898E+02 -1.69359361507E+02  2.51258942141E+02  8.29708324678E+01  2.4970E-13  9.0
      -24    2    1    2    0    0 -9.32524312687E+01 -1.37361885898E+02  1.56605097927E+02  2.35788795984E+02  5.92190508179E+01  2.4243E-13  9.0
       -1    1    3    3    0  500  6.49223362624E+01  1.39013355500E+02 -1.21878277793E+02  1.95943709649E+02  0.00000000000E+00  0.0000E+00  9.0
        2    1    3    3  500    0  2.83300950063E+01 -1.65146960203E+00 -4.74810837144E+01  5.53152324917E+01  0.00000000000E+00  0.0000E+00  9.0
        1    1    4    4  504    0 -2.62810471058E+01 -3.95019018943E+00  2.97382830563E+01  3.98831157089E+01  0.00000000000E+00  0.0000E+00  9.0
       -2    1    4    4    0  504 -6.69713841629E+01 -1.33411695709E+02  1.26866814871E+02  1.95905680275E+02  0.00000000000E+00  0.0000E+00  9.0
</event>
<event>
 8    1   5.1859766E+00   4.4640000E+02  -1.0000000E+00   9.4760000E-02
       11   -1    0    0    0    0  0.00000000000E+00  0.00000000000E+00  2.15832498840E+02  2.15832498840E+02  0.00000000000E+00  0.0000E+00  9.0
      -11   -1    0    0    0    0  0.00000000000E+00  0.00000000000E+00 -2.30828211880E+02  2.30828211880E+02  0.00000000000E+00  0.0000E+00  9.0
       24    2    1    2    0    0  4.05149810499E+01  3.10214977808E+01 -2.09190390611E+02  2.29941884084E+02  8.06774659850E+01  2.7888E-13  9.0
      -24    2    1    2    0    0 -4.05149810499E+01 -3.10214977808E+01  1.94194677571E+02  2.16718826635E+02  8.15578322859E+01  9.8718E-15  9.0
       -1    1    3    3    0  500  1.46782681306E+01  2.14315714082E+01 -1.98798835080E+02  2.00488754391E+02  0.00000000000E+00  0.0000E+00  9.0
        2    1    3    3  500    0  2.58367129193E+01  9.58992637262E+00 -1.03915555317E+01  2.94531296923E+01  0.00000000000E+00  0.0000E+00  9.0
       13    1    4    4    0    0 -4.92007613404E+01  3.57066171458E+00  1.59528441769E+02  1.66981434439E+02  1.05700000000E-01  0.0000E+00  9.0
      -14    1    4    4    0    0  8.68578029045E+00 -3.45921594954E+01  3.46662358023E+01  4.97373921965E+01  0.00000000000E+00  0.0000E+00  9.0
</event>
<event>
 8    1   5.1859766E+00   5.0000000E+02  -1.0000000E+00   9.3490000E-02
       11   -1    0    0    0    0  0.00000000000E+00  0.00000000000E+00  2.50000000000E+02  2.50000000000E+02  0.00000000000E+00  0.0000E+00  9.0
      -11   -1    0    0    0    0  0.00000000000E+00  0.00000000000E+00 -2.50000000000E+02  2.50000000000E+02  0.00000000000E+00  0.0000E+00  9.0
       24    2    1    2    0    0 -4.92808288709E+01  9.09084733551E+01 -2.11363592018E+02  2.49523696660E+02  8.30334663966E+01  7.6163E-14  9.0
      -24    2    1    2    0    0  4.92808288709E+01 -9.09084733551E+01  2.11363592018E+02  2.50476303339E+02  8.58537121003E+01  4.5111E-14  9.0
       -3    1    3    3    0  500 -8.57684385664E+00  7.92500643791E+00 -1.16470309985E+02  1.17054265559E+02  0.00000000000E+00  0.0000E+00  9.0
        4    1    3    3  500    0 -4.07039850142E+01  8.29834669172E+01 -9.48932820331E+01  1.32469431100E+02  5.87386917370E-01  0.0000E+00  9.0
        1    1    4    4  504    0  5.80814847639E+01 -7.69828284199E+01  2.13106731827E+02  2.33910867413E+02  0.00000000000E+00  0.0000E+00  9.0
       -2    1    4    4    0  504 -8.80065589302E+00 -1.39256449352E+01 -1.74313980896E+00  1.65654359255E+01  0.00000000000E+00  0.0000E+00  9.0
</event>
<event>
 8    1   5.1859766E+00   4.8560000E+02  -1.0000000E+00   9.3810000E-02
       11   -1    0    0    0    0  0.00000000000E+00  0.00000000000E+00  2.37097570220E+02  2.37097570220E+02  0.00000000000E+00  0.0000E+00  9.0
      -11   -1    0    0    0    0  0.00000000000E+00  0.00000000000E+00 -2.48674925940E+02  2.48674925940E+02  0.00000000000E+00  0.0000E+00  9.0
       24    2    1    2    0    0  1.78383286395E+02 -2.08931135160E+01 -1.48608115102E+02  2.45404460768E+02  7.66932750203E+01  6.1963E-14  9.0
      -24    2    1    2    0    0 -1.78383286395E+02  2.08931135160E+01  1.37030759392E+02  2.40368035388E+02  8.21111707358E+01  3.3509E-14  9.0
       -3    1    3    3    0  500  1.03451473049E+02 -4.77762182024E+01 -7.12078964567E+01  1.34370155986E+02  0.00000000000E+00  0.0000E+00  9.0
        4    1    3    3  500    0  7.49318133452E+01  2.68831046864E+01 -7.74002186451E+01  1.11034304782E+02  5.87386917370E-01  0.0000E+00  9.0
        1    1    4    4  504    0 -1.62763073242E+02  3.84737395868E+00  8.55120701989E+01  1.83899250806E+02  0.00000000000E+00  0.0000E+00  9.0
       -2    1    4    4    0  504 -1.56202131529E+01  1.70457395573E+01  5.15186891930E+01  5.64687845819E+01  0.00000000000E+00  0.0000E+00  9.0
</event>
<event>
 8    1   5.1859766E+00   4.7450000E+02  -1.0000000E+00   9.4070000E-02
       11   -1    0    0    0    0  0.00000000000E+00  0.00000000000E+00  2.25120427210E+02  2.25120427210E+02  0.00000000000E+00  0.0000E+00  9.0
      -11   -1    0    0    0    0  0.00000000000E+00  0.00000000000E+00 -2.49999992880E+02  2.49999992880E+02  0.00000000000E+00  0.0000E+00  9.0
       24    2    1    2    0    0  2.50672969175E+01  9.13899697179E+01 -2.15782600033E+02  2.47889246011E+02  7.68534441064E+01  5.8920E-14  9.0
      -24    2    1    2    0    0 -2.50672969175E+01 -9.13899697179E+01  1.90903034363E+02  2.27231174074E+02  7.88006472194E+01  1.9852E-15  9.0
       -3    1    3    3    0  500 -5.79935705353E+00  7.61945668909E+01 -1.90307248176E+02  2.05075823231E+02  0.00000000000E+00  0.0000E+00  9.0
        4    1    3    3  500    0  3.08666539710E+01  1.51954028270E+01 -2.54753518579E+01  4.28134227797E+01  5.87386917370E-01  0.0000E+00  9.0
        3    1    4    4  504    0 -6.12908147850E+00  9.68054053991E+00  1.29117022062E+00  1.15302049181E+01  0.00000000000E+00  0.0000E+00  9.0
       -4    1    4    4    0  504 -1.89382154390E+01 -1.01070510258E+02  1.89611864143E+02  2.15700969156E+02  5.87386917370E-01  0.0000E+00  9.0
</event>
<event>
 8    1   5.1859766E+00   4.7300000E+02  -1.0000000E+00   9.4110000E-02
       11   -1    0    0    0    0  0.00000000000E+00  0.00000000000E+00  2.37934617400E+02  2.37934617400E+02  0.00000000000E+00  0.0000E+00  9.0
      -11   -1    0    0    0    0  0.00000000000E+00  0.00000000000E+00 -2.35115900680E+02  2.35115900680E+02  0.00000000000E+00  0.0000E+00  9.0
       24    2    1    2    0    0  2.26172975053E+01  2.04575898676E+00 -2.18957263969E+02  2.35638908353E+02  8.40695212833E+01  1.8491E-13  9.0
      -24    2    1    2    0    0 -2.26172975053E+01 -2.04575898676E+00  2.21775980689E+02  2.37411609731E+02  8.16330787631E+01  1.1145E-13  9.0
       -1    1    3    3    0  500  3.93566218355E+01 -2.60307264842E+01 -1.72478833212E+02  1.78816918410E+02  0.00000000000E+00  0.0000E+00  9.0
        2    1    3    3  500    0 -1.67393243302E+01  2.80764854710E+01 -4.64784307576E+01  5.68219899433E+01  0.00000000000E+00  0.0000E+00  9.0
        3    1    4    4  504    0 -1.08302546304E+01 -3.85021260263E+01  6.76081693108E+01  7.85529928231E+01  0.00000000000E+00  0.0000E+00  9.0
       -4    1    4    4    0  504 -1.17870428749E+01  3.64563670395E+01  1.54167811378E+02  1.58858616908E+02  5.87386917370E-01  0.0000E+00  9.0
</event>
<event>
 8    1   5.1859766E+00   4.8030000E+02  -1.0000000E+00   9.3940000E-02
       11   -1    0    0    0    0  0.00000000000E+00  0.00000000000E+00  2.49908403160E+02  2.49908403160E+02  0.00000000000E+00  0.0000E+00  9.0
      -11   -1    0    0    0    0  0.00000000000E+00  0.00000000000E+00 -2.30733175800E+02  2.30733175800E+02  0.00000000000E+00  0.0000E+00  9.0
       24    2    1    2    0    0 -1.36595347038E+01  8.82552010583E+00 -2.15808892775E+02  2.31269815630E+02  8.15338992506E+01  1.0226E-14  9.0
      -24    2    1    2    0    0  1.36595347038E+01 -8.82552010583E+00  2.34984120135E+02  2.49371763325E+02  8.18795880219E+01  1.0302E-13  9.0
       -3    1    3    3    0  500  2.26308506890E+01 -2.37849882548E+01 -6.59956372067E+01  7.37109571197E+01  0.00000000000E+00  0.0000E+00  9.0
        4    1    3    3  500    0 -3.62903853929E+01  3.26105083606E+01 -1.49813255569E+02  1.57558858510E+02  5.87386917370E-01  0.0000E+00  9.0
       13    1    4    4    0    0  3.20656381140E+01  7.62676417741E+00  2.15270590672E+02  2.17779271420E+02  1.05700000000E-01  0.0000E+00  9.0
      -14    1    4    4    0    0 -1.84061034101E+01 -1.64522842832E+01  1.97135294637E+01  3.15924919055E+01  0.00000000000E+00  0.0000E+00  9.0
</event>
<event>
 8    1   5.1859766E+00   4.6060000E+02  -1.0000000E+00   9.4410000E-02
       11   -1    0    0    0    0  0.00000000000E+00  0.00000000000E+00  2.27534632180E+02  2.27534632180E+02  0.00000000000E+00  0.0000E+00  9.0
      -11   -1    0    0    0    0  0.00000000000E+00  0.00000000000E+00 -2.33130415610E+02  2.33130415610E+02  0.00000000000E+00  0.0000E+00  9.0
       24    2    1    2    0    0  5.19787727159E+01  2.88344803153E+01 -2.14287600464E+02  2.31369631931E+02  6.38710482055E+01  6.5464E-14  9.0
      -24    2    1    2    0    0 -5.19787727159E+01 -2.88344803153E+01  2.08691817034E+02  2.29295415862E+02  7.41005611987E+01  1.5157E-13  9.0
       -1    1    3    3    0  500  2.18866640683E+01 -1.44265997064E+01 -1.24757712995E+02  1.27481919482E+02  0.00000000000E+00  0.0000E+00  9.0
        2    1    3    3  500    0  3.00921086476E+01  4.32610800217E+01 -8.95298874693E+01  1.03887712448E+02  0.00000000000E+00  0.0000E+00  9.0
        1    1    4    4  504    0  1.72329022341E+01 -1.25382438424E+01  2.85388085714E+01  3.56180301636E+01  0.00000000000E+00  0.0000E+00  9.0
       -2    1    4    4    0  504 -6.92116749500E+01 -1.62962364730E+01  1.80153008463E+02  1.93677385698E+02  0.00000000000E+00  0.0000E+00  9.0
</event>
<event>
 8    1   5.1859766E+00   4.9920000E+02  -1.0000000E+00   9.3510000E-02
       11   -1    0    0    0    0  0.00000000000E+00  0.00000000000E+00  2.49236816850E+02  2.49236816850E+02  0.00000000000E+00  0.0000E+00  9.0
      -11   -1    0    0    0    0  0.00000000000E+00  0.00000000000E+00 -2.49999980430E+02  2.49999980430E+02  0.00000000000E+00  0.0000E+00  9.0
       24    2    1    2    0    0 -1.68109382880E+01 -1.77506167708E+01 -2.35750249654E+02  2.50314992308E+02  8.05091492945E+01  9.0399E-14  9.0
      -24    2    1    2    0    0  1.68109382880E+01  1.77506167708E+01  2.34987086074E+02  2.48921804972E+02  7.83928716614E+01  6.7754E-14  9.0
       -3    1    3    3    0  500  2.40839362525E+01 -4.15252646452E+00 -1.69670223963E+02  1.71421306614E+02  0.00000000000E+00  0.0000E+00  9.0
        4    1    3    3  500    0 -4.08948745405E+01 -1.35980903063E+01 -6.60800256910E+01  7.88936856940E+01  5.87386917370E-01  0.0000E+00  9.0
        3    1    4    4  504    0  2.09223996933E+00 -3.08931540790E+01  9.99633995906E+01  1.04649155251E+02  0.00000000000E+00  0.0000E+00  9.0
       -4    1    4    4    0  504  1.47186983187E+01  4.86437708498E+01  1.35023686483E+02  1.44272649722E+02  5.87386917370E-01  0.0000E+00  9.0
</event>
<event>
 8    1   5.1859766E+00   4.3350000E+02  -1.0000000E+00   9.5100000E-02
       11   -1    0    0    0    0  0.00000000000E+00  0.00000000000E+00  1.92359642420E+02  1.92359642420E+02  0.00000000000E+00  0.0000E+00  9.0
      -11   -1    0    0    0    0  0.00000000000E+00  0.00000000000E+00 -2.44278496120E+02  2.44278496120E+02  0.00000000000E+00  0.0000E+00  9.0
       24    2    1    2    0    0  9.53361195676E+01  5.24481124993E-01 -2.04352173023E+02  2.39537545286E+02  8.08033056731E+01  6.6362E-14  9.0
      -24    2    1    2    0    0 -9.53361195676E+01 -5.24481124993E-01  1.52433319313E+02  1.97100593248E+02  8.07680397638E+01  1.2038E-13  9.0
       -1    1    3    3    0  500  1.22433224596E+01 -3.18538729690E+01 -4.02506581941E+01  5.27701018857E+01  0.00000000000E+00  0.0000E+00  9.0
        2    1    3    3  500    0  8.30927971081E+01  3.23783540940E+01 -1.64101514829E+02  1.86767443400E+02  0.00000000000E+00  0.0000E+00  9.0
        3    1    4    4  504    0 -2.03115791145E+01  2.67900908705E+01  8.89599247014E+01  9.51006699127E+01  0.00000000000E+00  0.0000E+00  9.0
       -4    1    4    4    0  504 -7.50245404531E+01 -2.73145719955E+01  6.34733946119E+01  1.01999923336E+02  5.87386917370E-01  0.0000E+00  9.0
</event>
<event>
 8    1   5.1859766E+00   4.9590000E+02  -1.0000000E+00   9.3580000E-02
       11   -1    0    0    0    0  0.00000000000E+00  0.00000000000E+00  2.45949907740E+02  2.45949907740E+02  0.00000000000E+00  0.0000E+00  9.0
      -11   -1    0    0    0    0  0.00000000000E+00  0.00000000000E+00 -2.49998272870E+02  2.49998272870E+02  0.00000000000E+00  0.0000E+00  9.0
       24    2    1    2    0    0 -1.70008963377E+01 -5.75820988035E+00 -2.36138260002E+02  2.49789017259E+02  7.94423555081E+01  1.4739E-13  9.0
      -24    2    1    2    0    0  1.70008963377E+01  5.75820988035E+00  2.32089894872E+02  2.46159163348E+02  8.00401583023E+01  2.1900E-13  9.0
      -13    1    3    3    0    0 -2.28773909891E+01 -3.81018119223E+01 -9.51252392085E+01  1.04994977962E+02  1.05700000000E-01  0.0000E+00  9.0
       14    1    3    3    0    0  5.87649465142E+00  3.23436020419E+01 -1.41013020794E+02  1.44794039297E+02  0.00000000000E+00  0.0000E+00  9.0
        3    1    4    4  500    0  2.91405886960E+01  1.25858590283E+01  2.29860243005E+02  2.32041610647E+02  0.00000000000E+00  0.0000E+00  9.0
       -4    1    4    4    0  500 -1.21396923583E+01 -6.82764914795E+00  2.22965186720E+00  1.41175527016E+01  5.87386917370E-01  0.0000E+00  9.0
</event>
<event>
 8    1   5.1859766E+00   4.9140000E+02  -1.0000000E+00   9.3680000E-02
       11   -1    0    0    0    0  0.00000000000E+00  0.00000000000E+00  2.45131581110E+02  2.45131581110E+02  0.00000000000E+00  0.0000E+00  9.0
      -11   -1    0    0    0    0  0.00000000000E+00  0.00000000000E+00 -2.46252897540E+02  2.46252897540E+02  0.00000000000E+00  0.0000E+00  9.0
       24    2    1    2    0    0  1.14841430901E+01 -3.24817842951E+01 -2.29695903162E+02  2.45849941425E+02  8.05917732510E+01  3.5139E-13  9.0
      -24    2    1    2    0    0 -1.14841430901E+01  3.24817842951E+01  2.28574586722E+02  2.45534537228E+02  8.27883773430E+01  3.2338E-14  9.0
       -1    1    3    3    0  500  2.70009980428E+01 -2.99579748381E+01 -2.26171235082E+02  2.29738899036E+02  0.00000000000E+00  0.0000E+00  9.0
        2    1    3    3  500    0 -1.55168549527E+01 -2.52380945695E+00 -3.52466808037E+00  1.61110423894E+01  0.00000000000E+00  0.0000E+00  9.0
       13    1    4    4    0    0 -3.52952821674E+01 -1.35520680799E+01  9.98454210250E+01  1.06763920707E+02  1.05700000000E-01  0.0000E+00  9.0
      -14    1    4    4    0    0  2.38111390772E+01  4.60338523750E+01  1.28729165697E+02  1.38770616521E+02  0.00000000000E+00  0.0000E+00  9.0
</event>
<event>
 8    1   5.1859766E+00   4.3390000E+02  -1.0000000E+00   9.5090000E-02
       11   -1    0    0    0    0  0.00000000000E+00  0.00000000000E+00  1.88268456820E+02  1.88268456820E+02  0.00000000000E+00  0.0000E+00  9.0
      -11   -1    0    0    0    0  0.00000000000E+00  0.00000000000E+00 -2.49990998130E+02  2.49990998130E+02  0.00000000000E+00  0.0000E+00  9.0
       24    2    1    2    0    0 -2.78306259658E+01  1.80449965284E+01 -2.30469148168E+02  2.47064788571E+02  8.26124436935E+01  1.5283E-13  9.0
      -24    2    1    2    0    0  2.78306259658E+01 -1.80449965284E+01  1.68746606858E+02  1.91194666380E+02  8.35453019907E+01  1.8411E-13  9.0
       -1    1    3    3    0  500 -4.03602255194E+01 -1.67055132958E+01 -1.75372515628E+02  1.80730576318E+02  0.00000000000E+00  0.0000E+00  9.0
        2    1    3    3  500    0  1.25295995537E+01  3.47505098241E+01 -5.50966325399E+01  6.63342122532E+01  0.00000000000E+00  0.0000E+00  9.0
        3    1    4    4  504    0 -5.15844853368E-01 -4.54717525718E+01  5.84516823204E+01  7.40577176528E+01  0.00000000000E+00  0.0000E+00  9.0
       -4    1    4    4    0  504  2.83464708191E+01  2.74267560434E+01  1.10294924538E+02  1.17136948727E+02  5.87386917370E-01  0.0000E+00  9.0
</event>
<event>
 8    1   5.1859766E+00   4.8290000E+02  -1.0000000E+00   9.3880000E-02
       11   -1    0    0    0    0  0.00000000000E+00  0.00000000000E+00  2.33146795460E+02  2.33146795460E+02  0.00000000000E+00  0.0000E+00  9.0
      -11   -1    0    0    0    0  0.00000000000E+00  0.00000000000E+00 -2.50000000000E+02  2.50000000000E+02  0.00000000000E+00  0.0000E+00  9.0
       24    2    1    2    0    0  1.34504548355E+02  7.67298625530E+01 -1.75856939850E+02  2.47509056864E+02  7.97253071515E+01  1.2961E-13  9.0
      -24    2    1    2    0    0 -1.34504548355E+02 -7.67298625530E+01  1.59003735310E+02  2.35637738604E+02  7.91455031955E+01  4.8398E-14  9.0
       -1    1    3    3    0  500  4.92225536746E+00  7.79799523169E+00  8.02956684429E+00  1.22274801673E+01  0.00000000000E+00  0.0000E+00  9.0
        2    1    3    3  500    0  1.29582292988E+02  6.89318673213E+01 -1.83886506695E+02  2.35281576696E+02  0.00000000000E+00  0.0000E+00  9.0
        1    1    4    4  504    0  4.99467707600E+00 -5.59878266384E+00  3.52832242307E+01  3.60721371493E+01  0.00000000000E+00  0.0000E+00  9.0
       -2    1    4    4    0  504 -1.39499225431E+02 -7.11310798891E+01  1.23720511080E+02  1.99565601455E+02  0.00000000000E+00  0.0000E+00  9.0
</event>
<event>
 8    1   5.1859766E+00   1.8310000E+02  -1.0000000E+00   1.0610000E-01
       11   -1    0    0    0    0  0.00000000000E+00  0.00000000000E+00  2.49999289750E+02  2.49999289750E+02  0.00000000000E+00  0.0000E+00  9.0
      -11   -1    0    0    0    0  0.00000000000E+00  0.00000000000E+00 -3.35152398850E+01  3.35152398850E+01  0.00000000000E+00  0.0000E+00  9.0
       24    2    1    2    0    0 -2.02007100283E+01 -1.94083886620E+00  5.40131672226E+01  1.00627961993E+02  8.24422765350E+01  3.3303E-14  9.0
      -24    2    1    2    0    0  2.02007100283E+01  1.94083886620E+00  1.62470882649E+02  1.82886567648E+02  8.14792818816E+01  1.1625E-13  9.0
       -1    1    3    3    0  500 -4.48282737627E+01  2.20417430330E+01  2.61890549781E+01  5.64028294071E+01  0.00000000000E+00  0.0000E+00  9.0
        2    1    3    3  500    0  2.46275637344E+01 -2.39825818992E+01  2.78241122445E+01  4.42251325858E+01  0.00000000000E+00  0.0000E+00  9.0
        1    1    4    4  504    0  4.70813192860E+01  8.00052809019E+00  1.38015500946E+02  1.46044300049E+02  0.00000000000E+00  0.0000E+00  9.0
       -2    1    4    4    0  504 -2.68806092577E+01 -6.05968922398E+00  2.44553817035E+01  3.68422675988E+01  0.00000000000E+00  0.0000E+00  9.0
</event>
<event>
 8    1   5.1859766E+00   5.0000000E+02  -1.0000000E+00   9.3490000E-02
       11   -1    0    0    0    0  0.00000000000E+00  0.00000000000E+00  2.49994393160E+02  2.49994393160E+02  0.00000000000E+00  0.0000E+00  9.0
      -11   -1    0    0    0    0  0.00000000000E+00  0.00000000000E+00 -2.49990206820E+02  2.49990206820E+02  0.00000000000E+00  0.0000E+00  9.0
       24    2    1    2    0    0 -2.32641640298E+02  1.77449571590E+01  3.89151256808E+01  2.49733141211E+02  8.00951840457E+01  1.0883E-13  9.0
      -24    2    1    2    0    0  2.32641640298E+02 -1.77449571590E+01 -3.89109393458E+01  2.50251458775E+02  8.16989296943E+01  1.7358E-13  9.0
       -1    1    3    3    0  500 -1.82325948940E+02 -8.74691416162E+00  5.49937586380E+01  1.90639905721E+02  0.00000000000E+00  0.0000E+00  9.0
        2    1    3    3  500    0 -5.03156913579E+01  2.64918713207E+01 -1.60786329572E+01  5.90932354899E+01  0.00000000000E+00  0.0000E+00  9.0
        1    1    4    4  504    0  1.32390095156E+02  3.00768747298E+01 -2.82128208037E+01  1.38664050664E+02  0.00000000000E+00  0.0000E+00  9.0
       -2    1    4    4    0  504  1.00251545142E+02 -4.78218318888E+01 -1.06981185421E+01  1.11587408111E+02  0.00000000000E+00  0.0000E+00  9.0
</event>
<event>
 8    1   5.1859766E+00   5.0000000E+02  -1.0000000E+00   9.3490000E-02
       11   -1    0    0    0    0  0.00000000000E+00  0.00000000000E+00  2.50000000000E+02  2.50000000000E+02  0.00000000000E+00  0.0000E+00  9.0
      -11   -1    0    0    0    0  0.00000000000E+00  0.00000000000E+00 -2.50000000000E+02  2.50000000000E+02  0.00000000000E+00  0.0000E+00  9.0
       24    2    1    2    0    0 -1.76874229846E+01 -7.34282576130E+00 -2.35755320253E+02  2.49788219218E+02  8.02921005478E+01  5.3087E-13  9.0
      -24    2    1    2    0    0  1.76874229846E+01  7.34282576130E+00  2.35755320253E+02  2.50211780786E+02  8.16002585435E+01  2.3965E-13  9.0
       -1    1    3    3    0  500 -4.42847898902E+00  2.85568190214E+01 -1.79113605642E+02  1.81429840613E+02  0.00000000000E+00  0.0000E+00  9.0
        2    1    3    3  500    0 -1.32589439955E+01 -3.58996447827E+01 -5.66417146113E+01  6.83583786050E+01  0.00000000000E+00  0.0000E+00  9.0
        3    1    4    4  504    0  1.42718894537E+01 -3.68201897806E+01  1.07816939745E+02  1.14821190118E+02  0.00000000000E+00  0.0000E+00  9.0
       -4    1    4    4    0  504  3.41553353083E+00  4.41630155419E+01  1.27938380508E+02  1.35390590668E+02  5.87386917370E-01  0.0000E+00  9.0
</event>
<event>
 8    1   5.1859766E+00   3.2830000E+02  -1.0000000E+00   9.8390000E-02
       11   -1    0    0    0    0  0.00000000000E+00  0.00000000000E+00  2.48746624890E+02  2.48746624890E+02  0.00000000000E+00  0.0000E+00  9.0
      -11   -1    0    0    0    0  0.00000000000E+00  0.00000000000E+00 -1.08300061270E+02  1.08300061270E+02  0.00000000000E+00  0.0000E+00  9.0
       24    2    1    2    0    0 -3.69845335803E+01  6.46300747099E+01 -6.18183302232E+01  1.26862609648E+02  8.20226401311E+01  6.3649E-14  9.0
      -24    2    1    2    0    0  3.69845335803E+01 -6.46300747099E+01  2.02264893838E+02  2.30184076512E+02  8.08004920725E+01  3.3088E-16  9.0
       -1    1    3    3    0  500 -4.59813160226E+01  2.64041167784E+01  7.06848933314E-01  5.30279024800E+01  0.00000000000E+00  0.0000E+00  9.0
        2    1    3    3  500    0  8.99678244228E+00  3.82259579315E+01 -6.25251791565E+01  7.38347071685E+01  0.00000000000E+00  0.0000E+00  9.0
        1    1    4    4  504    0  3.83811141014E+00 -3.63711874687E+00 -7.53095106788E+00  9.20189958445E+00  0.00000000000E+00  0.0000E+00  9.0
       -2    1    4    4    0  504  3.31464221701E+01 -6.09929559630E+01  2.09795844906E+02  2.20982176928E+02  0.00000000000E+00  0.0000E+00  9.0
</event>
<event>
 8    1   5.1859766E+00   4.9540000E+02  -1.0000000E+00   9.3590000E-02
       11   -1    0    0    0    0  0.00000000000E+00  0.00000000000E+00  2.50000000000E+02  2.50000000000E+02  0.00000000000E+00  0.0000E+00  9.0
      -11   -1    0    0    0    0  0.00000000000E+00  0.00000000000E+00 -2.45432436360E+02  2.45432436360E+02  0.00000000000E+00  0.0000E+00  9.0
       24    2    1    2    0    0  5.80486327160E+01 -7.33495352757E+01 -2.12537329293E+02  2.45541753293E+02  7.98050009833E+01  9.2330E-15  9.0
      -24    2    1    2    0    0 -5.80486327160E+01  7.33495352757E+01  2.17104892923E+02  2.49890683068E+02  8.10001288127E+01  2.2258E-15  9.0
       -1    1    3    3    0  500  5.76710915797E+01 -8.40287148052E+01 -1.45410353043E+02  1.77569565208E+02  0.00000000000E+00  0.0000E+00  9.0
        2    1    3    3  500    0  3.77541136214E-01  1.06791795295E+01 -6.71269762492E+01  6.79721880852E+01  0.00000000000E+00  0.0000E+00  9.0
        3    1    4    4  504    0 -5.80001355226E+01  1.30233289448E+01  7.64314707442E+01  9.68266106893E+01  0.00000000000E+00  0.0000E+00  9.0
       -4    1    4    4    0  504 -4.84971933475E-02  6.03262063309E+01  1.40673422178E+02  1.53064072378E+02  5.87386917370E-01  0.0000E+00  9.0
</event>
<event>
 8    1   5.1859766E+00   4.9550000E+02  -1.0000000E+00   9.3590000E-02
       11   -1    0    0    0    0  0.00000000000E+00  0.00000000000E+00  2.50000000000E+02  2.50000000000E+02  0.00000000000E+00  0.0000E+00  9.0
      -11   -1    0    0    0    0  0.00000000000E+00  0.00000000000E+00 -2.45566606030E+02  2.45566606030E+02  0.00000000000E+00  0.0000E+00  9.0
       24    2    1    2    0    0 -4.19657068770E+01  4.46942144964E+00 -2.28478278844E+02  2.45687383810E+02  7.98678306847E+01  2.7082E-13  9.0
      -24    2    1    2    0    0  4.19657068770E+01 -4.46942144964E+00  2.32911672804E+02  2.49879222226E+02  8.00667352280E+01  2.1786E-14  9.0
       -3    1    3    3    0  500 -4.23547580714E+01  1.82280349351E+01 -2.27222144363E+02  2.31853595352E+02  0.00000000000E+00  0.0000E+00  9.0
        4    1    3    3  500    0  3.89051194413E-01 -1.37586134854E+01 -1.25613448090E+00  1.38337884579E+01  5.87386917370E-01  0.0000E+00  9.0
        3    1    4    4  504    0  3.97507074612E+01 -3.22081058363E+01  8.37303951209E+01  9.81236968950E+01  0.00000000000E+00  0.0000E+00  9.0
       -4    1    4    4    0  504  2.21499941578E+00  2.77386843867E+01  1.49181277683E+02  1.51755525331E+02  5.87386917370E-01  0.0000E+00  9.0
</event>
<event>
 8    1   5.1859766E+00   4.6480000E+02  -1.0000000E+00   9.4310000E-02
       11   -1    0    0    0    0  0.00000000000E+00  0.00000000000E+00  2.37822456260E+02  2.37822456260E+02  0.00000000000E+00  0.0000E+00  9.0
      -11   -1    0    0    0    0  0.00000000000E+00  0.00000000000E+00 -2.27063701460E+02  2.27063701460E+02  0.00000000000E+00  0.0000E+00  9.0
       24    2    1    2    0    0 -1.18055151660E+02  4.54385661576E+01 -1.72200122447E+02  2.28395052928E+02  8.06829344009E+01  9.2204E-14  9.0
      -24    2    1    2    0    0  1.18055151660E+02 -4.54385661576E+01  1.82958877247E+02  2.36491104784E+02  8.03268930728E+01  8.3244E-14  9.0
      -13    1    3    3    0    0 -3.57480880934E+01  1.74382975083E+01 -1.21292520441E+02  1.27647587951E+02  1.05700000000E-01  0.0000E+00  9.0
       14    1    3    3    0    0 -8.23070635664E+01  2.80002686493E+01 -5.09076020059E+01  1.00747464977E+02  0.00000000000E+00  0.0000E+00  9.0
       13    1    4    4    0    0  7.21253178411E+01  5.20073489174E+00  5.30292406412E+01  8.96728534873E+01  1.05700000000E-01  0.0000E+00  9.0
      -14    1    4    4    0    0  4.59298338187E+01 -5.06393010493E+01  1.29929636605E+02  1.46818251297E+02  0.00000000000E+00  0.0000E+00  9.0
</event>
<event>
 8    1   5.1859766E+00   4.7560000E+02  -1.0000000E+00   9.4050000E-02
       11   -1    0    0    0    0  0.00000000000E+00  0.00000000000E+00  2.49011193610E+02  2.49011193610E+02  0.00000000000E+00  0.0000E+00  9.0
      -11   -1    0    0    0    0  0.00000000000E+00  0.00000000000E+00 -2.27131078660E+02  2.27131078660E+02  0.00000000000E+00  0.0000E+00  9.0
       24    2    1    2    0    0 -1.85051688742E+01  6.21813025161E+00 -2.12860940080E+02  2.27377068933E+02  7.75206117480E+01  1.5122E-15  9.0
      -24    2    1    2    0    0  1.85051688742E+01 -6.21813025161E+00  2.34741055030E+02  2.48765203329E+02  7.99978565465E+01  1.3997E-14  9.0
       -3    1    3    3    0  500 -2.03865548620E+01  4.06304642622E+01 -1.23167366799E+02  1.31288409578E+02  0.00000000000E+00  0.0000E+00  9.0
        4    1    3    3  500    0  1.88138598778E+00 -3.44123340106E+01 -8.96935732807E+01  9.60886593545E+01  5.87386917370E-01  0.0000E+00  9.0
       13    1    4    4    0    0  4.46518479903E+01  1.53032691760E+01  1.14535178834E+02  1.23880167660E+02  1.05700000000E-01  0.0000E+00  9.0
      -14    1    4    4    0    0 -2.61466791161E+01 -2.15213994277E+01  1.20205876196E+02  1.24885035669E+02  0.00000000000E+00  0.0000E+00  9.0
</event>
<event>
 8    1   5.1859766E+00   4.7140000E+02  -1.0000000E+00   9.4150000E-02
       11   -1    0    0    0    0  0.00000000000E+00  0.00000000000E+00  2.41536090160E+02  2.41536090160E+02  0.00000000000E+00  0.0000E+00  9.0
      -11   -1    0    0    0    0  0.00000000000E+00  0.00000000000E+00 -2.30047874060E+02  2.30047874060E+02  0.00000000000E+00  0.0000E+00  9.0
       24    2    1    2    0    0 -1.42907967944E+02 -2.84710230540E-01 -1.63463097834E+02  2.31661002643E+02  8.07704613709E+01  2.2510E-14  9.0
      -24    2    1    2    0    0  1.42907967944E+02  2.84710230540E-01  1.74951313924E+02  2.39922961570E+02  8.08226260571E+01  2.1214E-13  9.0
      -13    1    3    3    0    0  6.98907588001E+00 -1.13801537923E+01 -1.86878773946E+01  2.29696107063E+01  1.05700000000E-01  0.0000E+00  9.0
       14    1    3    3    0    0 -1.49897043824E+02  1.10954435617E+01 -1.44775220439E+02  2.08691391936E+02  0.00000000000E+00  0.0000E+00  9.0
        3    1    4    4  500    0  3.19366476863E+01 -3.51274749803E+01  5.63728418910E+01  7.37006530961E+01  0.00000000000E+00  0.0000E+00  9.0
       -4    1    4    4    0  500  1.10971320258E+02  3.54121852108E+01  1.18578472033E+02  1.66222308474E+02  5.87386917370E-01  0.0000E+00  9.0
</event>
<event>
 8    1   5.1859766E+00   4.9970000E+02  -1.0000000E+00   9.3500000E-02
       11   -1    0    0    0    0  0.00000000000E+00  0.00000000000E+00  2.49660640860E+02  2.49660640860E+02  0.00000000000E+00  0.0000E+00  9.0
      -11   -1    0    0    0    0  0.00000000000E+00  0.00000000000E+00 -2.49998247800E+02  2.49998247800E+02  0.00000000000E+00  0.0000E+00  9.0
       24    2    1    2    0    0 -3.03246667129E+01 -3.61530048715E+01 -2.32290995972E+02  2.49704805901E+02  7.85287088155E+01  7.1101E-14  9.0
      -24    2    1    2    0    0  3.03246667129E+01  3.61530048715E+01  2.31953389032E+02  2.49954082761E+02  8.02997112891E+01  7.2299E-14  9.0
       -1    1    3    3    0  500 -3.81552316202E+01  1.14877828200E+01 -7.18826084270E+01  8.21882001773E+01  0.00000000000E+00  0.0000E+00  9.0
        2    1    3    3  500    0  7.83056490725E+00 -4.76407876915E+01 -1.60408387545E+02  1.67516605724E+02  0.00000000000E+00  0.0000E+00  9.0
       13    1    4    4    0    0  2.03148748353E+01  4.03692348295E+01  4.89245307128E+01  6.66032291878E+01  1.05700000000E-01  0.0000E+00  9.0
      -14    1    4    4    0    0  1.00097918776E+01 -4.21622995797E+00  1.83028858319E+02  1.83350853573E+02  0.00000000000E+00  0.0000E+00  9.0
</event>
<event>
 8    1   5.1859766E+00   2.4770000E+02  -1.0000000E+00   1.0200000E-01
       11   -1    0    0    0    0  0.00000000000E+00  0.00000000000E+00  2.34926021220E+02  2.34926021220E+02  0.00000000000E+00  0.0000E+00  9.0
      -11   -1    0    0    0    0  0.00000000000E+00  0.00000000000E+00 -6.52812812610E+01  6.52812812610E+01  0.00000000000E+00  0.0000E+00  9.0
       24    2    1    2    0    0  4.58306173983E+00  3.27894417985E+01 -2.20111165476E+01  8.96804217643E+01  8.03861732375E+01  2.0937E-13  9.0
      -24    2    1    2    0    0 -4.58306173983E+00 -3.27894417985E+01  1.91655856513E+02  2.10526880723E+02  8.05819348416E+01  1.0801E-13  9.0
       -1    1    3    3    0  500 -2.29583064828E+01  4.95198116785E+01 -1.14662641618E+01  5.57742843886E+01  0.00000000000E+00  0.0000E+00  9.0
        2    1    3    3  500    0  2.75413682226E+01 -1.67303698800E+01 -1.05448523859E+01  3.39061373757E+01  0.00000000000E+00  0.0000E+00  9.0
        3    1    4    4  504    0  3.66796944103E+01 -6.44624738855E+00  6.79726188125E+01  7.75063287458E+01  0.00000000000E+00  0.0000E+00  9.0
       -4    1    4    4    0  504 -4.12627561501E+01 -2.63431944099E+01  1.23683237700E+02  1.33020551977E+02  5.87386917370E-01  0.0000E+00  9.0
</event>
<event>
 8    1   5.1859766E+00   4.0660000E+02  -1.0000000E+00   9.5830000E-02
       11   -1    0    0    0    0  0.00000000000E+00  0.00000000000E+00  1.71636475130E+02  1.71636475130E+02  0.00000000000E+00  0.0000E+00  9.0
      -11   -1    0    0    0    0  0.00000000000E+00  0.00000000000E+00 -2.40855916260E+02  2.40855916260E+02  0.00000000000E+00  0.0000E+00  9.0
       24    2    1    2    0    0  3.03148389413E+01 -4.07632998175E-02 -2.18926544813E+02  2.35759971197E+02  8.20666855249E+01  1.5246E-14  9.0
      -24    2    1    2    0    0 -3.03148389413E+01  4.07632998175E-02  1.49707103693E+02  1.76732420199E+02  8.88996081614E+01  6.7808E-14  9.0
       -1    1    3    3    0  500  7.11441873717E+00  5.52328308521E+00 -2.10143399270E+02  2.10336325599E+02  0.00000000000E+00  0.0000E+00  9.0
        2    1    3    3  500    0  2.32004202042E+01 -5.56404638503E+00 -8.78314554390E+00  2.54236455975E+01  0.00000000000E+00  0.0000E+00  9.0
        1    1    4    4  504    0 -2.59193954949E+01 -2.35831949115E+01  1.21452281039E+01  3.70875816245E+01  0.00000000000E+00  0.0000E+00  9.0
       -2    1    4    4    0  504 -4.39544344646E+00  2.36239582114E+01  1.37561875590E+02  1.39644838574E+02  0.00000000000E+00  0.0000E+00  9.0
</event>
<event>
 8    1   5.1859766E+00   2.3580000E+02  -1.0000000E+00   1.0260000E-01
       11   -1    0    0    0    0  0.00000000000E+00  0.00000000000E+00  5.87827224100E+01  5.87827224100E+01  0.00000000000E+00  0.0000E+00  9.0
      -11   -1    0    0    0    0  0.00000000000E+00  0.00000000000E+00 -2.36545234880E+02  2.36545234880E+02  0.00000000000E+00  0.0000E+00  9.0
       24    2    1    2    0    0  7.98434908522E+00  2.53972317299E+01 -1.91028933741E+02  2.09742938946E+02  8.24092088388E+01  1.3642E-13  9.0
      -24    2    1    2    0    0 -7.98434908522E+00 -2.53972317299E+01  1.32664212694E+01  8.55850183462E+01  8.02497864306E+01  9.9812E-14  9.0
      -13    1    3    3    0    0 -1.30160605627E+01 -1.69919446676E+01 -1.33763137560E+02  1.35464874261E+02  1.05700000000E-01  0.0000E+00  9.0
       14    1    3    3    0    0  2.10004096480E+01  4.23891763975E+01 -5.72657961811E+01  7.42780646846E+01  0.00000000000E+00  0.0000E+00  9.0
        3    1    4    4  500    0  1.60978633117E+01 -4.52072560916E+01 -6.84602635250E+00  4.84737587088E+01  0.00000000000E+00  0.0000E+00  9.0
       -4    1    4    4    0  500 -2.40822123969E+01  1.98100243617E+01  2.01124476219E+01  3.71112596374E+01  5.87386917370E-01  0.0000E+00  9.0
</event>
<event>
 8    1   5.1859766E+00   4.8580000E+02  -1.0000000E+00   9.3810000E-02
       11   -1    0    0    0    0  0.00000000000E+00  0.00000000000E+00  2.49848754470E+02  2.49848754470E+02  0.00000000000E+00  0.0000E+00  9.0
      -11   -1    0    0    0    0  0.00000000000E+00  0.00000000000E+00 -2.36163438600E+02  2.36163438600E+02  0.00000000000E+00  0.0000E+00  9.0
       24    2    1    2    0    0 -6.06550977384E+01  4.18613937241E+01 -2.09951570213E+02  2.36185530536E+02  7.91992792483E+01  8.7881E-15  9.0
      -24    2    1    2    0    0  6.06550977384E+01 -4.18613937241E+01  2.23636886083E+02  2.49826662530E+02  8.34774659881E+01  2.9584E-14  9.0
       -3    1    3    3    0  500 -5.01824112617E+01 -1.12881093640E+01 -7.67840065565E+01  9.24201248426E+01  0.00000000000E+00  0.0000E+00  9.0
        4    1    3    3  500    0 -1.04726864766E+01  5.31495030881E+01 -1.33167563657E+02  1.43765405694E+02  5.87386917370E-01  0.0000E+00  9.0
        3    1    4    4  504    0  1.49417340523E+00 -3.55910550093E+01  1.54782825174E+02  1.58829086504E+02  0.00000000000E+00  0.0000E+00  9.0
       -4    1    4    4    0  504  5.91609243332E+01 -6.27033871480E+00  6.88540609090E+01  9.09975760260E+01  5.87386917370E-01  0.0000E+00  9.0
</event>
<event>
 8    1   5.1859766E+00   4.9510000E+02  -1.0000000E+00   9.3600000E-02
       11   -1    0    0    0    0  0.00000000000E+00  0.00000000000E+00  2.45408383910E+02  2.45408383910E+02  0.00000000000E+00  0.0000E+00  9.0
      -11   -1    0    0    0    0  0.00000000000E+00  0.00000000000E+00 -2.49732472490E+02  2.49732472490E+02  0.00000000000E+00  0.0000E+00  9.0
       24    2    1    2    0    0 -6.13227506931E+01 -5.61117446335E+01 -2.21684147420E+02  2.48858999786E+02  7.66676784492E+01  5.3849E-15  9.0
      -24    2    1    2    0    0  6.13227506931E+01  5.61117446335E+01  2.17360058840E+02  2.46281856611E+02  8.06247485480E+01  1.6533E-14  9.0
       -3    1    3    3    0  500 -6.15668551938E+01 -3.51912700176E+01 -8.55268851440E+01  1.11102435735E+02  0.00000000000E+00  0.0000E+00  9.0
        4    1    3    3  500    0  2.44104500701E-01 -2.09204746159E+01 -1.36157262276E+02  1.37756564050E+02  5.87386917370E-01  0.0000E+00  9.0
        3    1    4    4  504    0  1.30342273891E+01  6.51883484831E+01  1.31761177328E+02  1.47581908486E+02  0.00000000000E+00  0.0000E+00  9.0
       -4    1    4    4    0  504  4.82885233040E+01 -9.07660384957E+00  8.55988815116E+01  9.86999481243E+01  5.87386917370E-01  0.0000E+00  9.0
</event>
<event>
 8    1   5.1859766E+00   4.9990000E+02  -1.0000000E+00   9.3490000E-02
       11   -1    0    0    0    0  0.00000000000E+00  0.00000000000E+00  2.49881166130E+02  2.49881166130E+02  0.00000000000E+00  0.0000E+00  9.0
      -11   -1    0    0    0    0  0.00000000000E+00  0.00000000000E+00 -2.50000000000E+02  2.50000000000E+02  0.00000000000E+00  0.0000E+00  9.0
       24    2    1    2    0    0 -5.29138553131E+01 -5.42247493562E+01 -2.24249449017E+02  2.50130307605E+02  8.08526800498E+01  5.4604E-14  9.0
      -24    2    1    2    0    0  5.29138553131E+01  5.42247493562E+01  2.24130615147E+02  2.49750858525E+02  8.00047446162E+01  1.4129E-13  9.0
       -3    1    3    3    0  500 -3.63779512734E+01 -3.59011457815E+01 -4.18234865223E+01  6.60412873296E+01  0.00000000000E+00  0.0000E+00  9.0
        4    1    3    3  500    0 -1.65359040397E+01 -1.83236035747E+01 -1.82425962495E+02  1.84089020275E+02  5.87386917370E-01  0.0000E+00  9.0
        1    1    4    4  504    0  5.83250147632E+01  8.53524721232E+00  8.68424468021E+01  1.04958412520E+02  0.00000000000E+00  0.0000E+00  9.0
       -2    1    4    4    0  504 -5.41115945010E+00  4.56895021439E+01  1.37288168345E+02  1.44792446006E+02  0.00000000000E+00  0.0000E+00  9.0
</event>
<event>
 8    1   5.1859766E+00   4.9480000E+02  -1.0000000E+00   9.3610000E-02
       11   -1    0    0    0    0  0.00000000000E+00  0.00000000000E+00  2.45350728320E+02  2.45350728320E+02  0.00000000000E+00  0.0000E+00  9.0
      -11   -1    0    0    0    0  0.00000000000E+00  0.00000000000E+00 -2.49503907090E+02  2.49503907090E+02  0.00000000000E+00  0.0000E+00  9.0
       24    2    1    2    0    0 -1.73511590461E+01 -7.17760427851E+01 -2.24079499905E+02  2.49442849505E+02  8.09768476383E+01  1.3911E-13  9.0
      -24    2    1    2    0    0  1.73511590461E+01  7.17760427851E+01  2.19926321135E+02  2.45411785905E+02  8.00405827984E+01  6.1179E-15  9.0
       -3    1    3    3    0  500 -6.31316840397E+00 -7.77165061844E+01 -2.23687732706E+02  2.36887976039E+02  0.00000000000E+00  0.0000E+00  9.0
        4    1    3    3  500    0 -1.10379906421E+01  5.94046339929E+00 -3.91767198876E-01  1.25548734658E+01  5.87386917370E-01  0.0000E+00  9.0
        1    1    4    4  504    0  1.39377601078E+01  3.51479447053E+01  2.00063432486E+02  2.03605049525E+02  0.00000000000E+00  0.0000E+00  9.0
       -2    1    4    4    0  504  3.41339893822E+00  3.66280980798E+01  1.98628886491E+01  4.18067363799E+01  0.00000000000E+00  0.0000E+00  9.0
</event>
<event>
 8    1   5.1859766E+00   5.0000000E+02  -1.0000000E+00   9.3490000E-02
       11   -1    0    0    0    0  0.00000000000E+00  0.00000000000E+00  2.49999343110E+02  2.49999343110E+02  0.00000000000E+00  0.0000E+00  9.0
      -11   -1    0    0    0    0  0.00000000000E+00  0.00000000000E+00 -2.50000000000E+02  2.50000000000E+02  0.00000000000E+00  0.0000E+00  9.0
       24    2    1    2    0    0 -1.25389094566E+02  7.53929581556E+01 -1.86261597631E+02  2.50139890183E+02  8.04366753004E+01  7.2028E-14  9.0
      -24    2    1    2    0    0  1.25389094566E+02 -7.53929581556E+01  1.86260940741E+02  2.49859452932E+02  7.95618312913E+01  4.2676E-14  9.0
       -3    1    3    3    0  500 -9.94990569520E+01  6.57440682908E+01 -1.87794566966E+02  2.22461556750E+02  0.00000000000E+00  0.0000E+00  9.0
        4    1    3    3  500    0 -2.58900376135E+01  9.64888986481E+00  1.53296933508E+00  2.76783334330E+01  5.87386917370E-01  0.0000E+00  9.0
        1    1    4    4  504    0  5.00265002461E+01 -6.96582190003E+01  1.29567245682E+02  1.55378857489E+02  0.00000000000E+00  0.0000E+00  9.0
       -2    1    4    4    0  504  7.53625943195E+01 -5.73473915535E+00  5.66936950590E+01  9.44805954426E+01  0.00000000000E+00  0.0000E+00  9.0
</event>
<event>
 8    1   5.1859766E+00   4.7890000E+02  -1.0000000E+00   9.3970000E-02
       11   -1    0    0    0    0  0.00000000000E+00  0.00000000000E+00  2.29340113710E+02  2.29340113710E+02  0.00000000000E+00  0.0000E+00  9.0
      -11   -1    0    0    0    0  0.00000000000E+00  0.00000000000E+00 -2.49999999870E+02  2.49999999870E+02  0.00000000000E+00  0.0000E+00  9.0
       24    2    1    2    0    0  9.27673514247E+01 -2.05066485352E+02 -2.40437484826E-01  2.38930965143E+02  8.01866783772E+01  4.8047E-15  9.0
      -24    2    1    2    0    0 -9.27673514247E+01  2.05066485352E+02 -2.04194486808E+01  2.40409148442E+02  8.19851197799E+01  2.9697E-13  9.0
       -1    1    3    3    0  500  4.40045281824E+01 -1.56850657936E+02  2.70271590457E+01  1.65133263522E+02  0.00000000000E+00  0.0000E+00  9.0
        2    1    3    3  500    0  4.87628232423E+01 -4.82158274161E+01 -2.72675965305E+01  7.37977016209E+01  0.00000000000E+00  0.0000E+00  9.0
        1    1    4    4  504    0  6.65786971707E+00  1.41883440668E+00  9.64058193571E+00  1.18017431044E+01  0.00000000000E+00  0.0000E+00  9.0
       -2    1    4    4    0  504 -9.94252211418E+01  2.03647650945E+02 -3.00600306165E+01  2.28607405338E+02  0.00000000000E+00  0.0000E+00  9.0
</event>
<event>
 8    1   5.1859766E+00   4.9530000E+02  -1.0000000E+00   9.3590000E-02
       11   -1    0    0    0    0  0.00000000000E+00  0.00000000000E+00  2.50000000000E+02  2.50000000000E+02  0.00000000000E+00  0.0000E+00  9.0
      -11   -1    0    0    0    0  0.00000000000E+00  0.00000000000E+00 -2.45346906040E+02  2.45346906040E+02  0.00000000000E+00  0.0000E+00  9.0
       24    2    1    2    0    0 -1.38309889564E+01 -4.49179682203E+01 -2.27152095780E+02  2.45420435880E+02  8.01510798776E+01  8.9482E-14  9.0
      -24    2    1    2    0    0  1.38309889564E+01  4.49179682203E+01  2.31805189730E+02  2.49926470163E+02  8.07506927368E+01  2.9468E-14  9.0
       -1    1    3    3    0  500 -3.46871187957E+01  3.62216800769E+00 -1.32599440800E+02  1.37109182814E+02  0.00000000000E+00  0.0000E+00  9.0
        2    1    3    3  500    0  2.08561298392E+01 -4.85401362280E+01 -9.45526549804E+01  1.08311253066E+02  0.00000000000E+00  0.0000E+00  9.0
       13    1    4    4    0    0  3.81218336469E+01  1.45299909363E+01  5.27063054968E+01  6.66510363672E+01  1.05700000000E-01  0.0000E+00  9.0
      -14    1    4    4    0    0 -2.42908446905E+01  3.03879772840E+01  1.79098884234E+02  1.83275433795E+02  0.00000000000E+00  0.0000E+00  9.0
</event>
<event>
 8    1   5.1859766E+00   4.8900000E+02  -1.0000000E+00   9.3740000E-02
       11   -1    0    0    0    0  0.00000000000E+00  0.00000000000E+00  2.39124230970E+02  2.39124230970E+02  0.00000000000E+00  0.0000E+00  9.0
      -11   -1    0    0    0    0  0.00000000000E+00  0.00000000000E+00 -2.49999997360E+02  2.49999997360E+02  0.00000000000E+00  0.0000E+00  9.0
       24    2    1    2    0    0  2.14892558607E+01 -5.17367163316E+01 -2.29878844074E+02  2.50580137261E+02  8.25084620092E+01  1.5243E-14  9.0
      -24    2    1    2    0    0 -2.14892558607E+01  5.17367163316E+01  2.19003077674E+02  2.38544091065E+02  7.61738762122E+01  8.6621E-14  9.0
       -1    1    3    3    0  500  4.69524760495E+01 -5.65783353541E+01 -1.78001635221E+02  1.92588227003E+02  0.00000000000E+00  0.0000E+00  9.0
        2    1    3    3  500    0 -2.54632201888E+01  4.84161902248E+00 -5.18772088522E+01  5.79919102586E+01  0.00000000000E+00  0.0000E+00  9.0
       13    1    4    4    0    0 -1.61018090119E+01  5.93672817176E+01  2.20646078340E+02  2.29059916728E+02  1.05700000000E-01  0.0000E+00  9.0
      -14    1    4    4    0    0 -5.38744684874E+00 -7.63056538599E+00 -1.64300066680E+00  9.48417433670E+00  0.00000000000E+00  0.0000E+00  9.0
</event>
<event>
 8    1   5.1859766E+00   4.3770000E+02  -1.0000000E+00   9.4990000E-02
       11   -1    0    0    0    0  0.00000000000E+00  0.00000000000E+00  2.46418808760E+02  2.46418808760E+02  0.00000000000E+00  0.0000E+00  9.0
      -11   -1    0    0    0    0  0.00000000000E+00  0.00000000000E+00 -1.94348297500E+02  1.94348297500E+02  0.00000000000E+00  0.0000E+00  9.0
       24    2    1    2    0    0  2.26917302628E+01  6.98977312067E+00 -1.77170317167E+02  1.94997917034E+02  7.79172305186E+01  3.9344E-14  9.0
      -24    2    1    2    0    0 -2.26917302628E+01 -6.98977312067E+00  2.29240828437E+02  2.45769189228E+02  8.53660670316E+01  3.2630E-14  9.0
       -3    1    3    3    0  500 -2.16223341390E+01 -9.60140317836E+00 -2.03928073358E+01  3.12342579173E+01  0.00000000000E+00  0.0000E+00  9.0
        4    1    3    3  500    0  4.43140644018E+01  1.65911762990E+01 -1.56777509832E+02  1.63763659116E+02  5.87386917370E-01  0.0000E+00  9.0
        1    1    4    4  504    0 -3.40319563274E+01  1.51580814550E+01  3.90991171739E+01  5.40063185993E+01  0.00000000000E+00  0.0000E+00  9.0
       -2    1    4    4    0  504  1.13402260646E+01 -2.21478545757E+01  1.90141711264E+02  1.91762870629E+02  0.00000000000E+00  0.0000E+00  9.0
</event>
<event>
 8    1   5.1859766E+00   5.0000000E+02  -1.0000000E+00   9.3490000E-02
       11   -1    0    0    0    0  0.00000000000E+00  0.00000000000E+00  2.49995886530E+02  2.49995886530E+02  0.00000000000E+00  0.0000E+00  9.0
      -11   -1    0    0    0    0  0.00000000000E+00  0.00000000000E+00 -2.49999999730E+02  2.49999999730E+02  0.00000000000E+00  0.0000E+00  9.0
       24    2    1    2    0    0 -3.93492969603E+01 -1.37565461460E+01 -2.32917635965E+02  2.49614812704E+02  7.94941497520E+01  4.7104E-14  9.0
      -24    2    1    2    0    0  3.93492969603E+01  1.37565461460E+01  2.32913522765E+02  2.50381073561E+02  8.18801757320E+01  1.1594E-13  9.0
       -3    1    3    3    0  500 -3.09117364821E+01  2.67323456195E+01 -1.65907947523E+02  1.70867202254E+02  0.00000000000E+00  0.0000E+00  9.0
        4    1    3    3  500    0 -8.43756047818E+00 -4.04888917655E+01 -6.70096884414E+01  7.87476104503E+01  5.87386917370E-01  0.0000E+00  9.0
        1    1    4    4  504    0 -2.19256052895E+01 -5.14452524430E+00  1.03871082475E+02  1.06284524188E+02  0.00000000000E+00  0.0000E+00  9.0
       -2    1    4    4    0  504  6.12749022498E+01  1.89010713903E+01  1.29042440289E+02  1.44096549373E+02  0.00000000000E+00  0.0000E+00  9.0
</event>
<event>
 8    1   5.1859766E+00   5.0000000E+02  -1.0000000E+00   9.3490000E-02
       11   -1    0    0    0    0  0.00000000000E+00  0.00000000000E+00  2.50000000000E+02  2.50000000000E+02  0.00000000000E+00  0.0000E+00  9.0
      -11   -1    0    0    0    0  0.00000000000E+00  0.00000000000E+00 -2.49999950520E+02  2.49999950520E+02  0.00000000000E+00  0.0000E+00  9.0
       24    2    1    2    0    0 -4.37471972325E+01 -1.44177349082E+01 -2.31971413110E+02  2.49778684214E+02  8.03552502447E+01  8.0733E-14  9.0
      -24    2    1    2    0    0  4.37471972325E+01  1.44177349082E+01  2.31971462590E+02  2.50221266304E+02  8.17204644422E+01  7.9835E-14  9.0
       -3    1    3    3    0  500 -4.62413288522E+00 -4.81765175034E+00  5.66154286896E+00  8.75473820196E+00  0.00000000000E+00  0.0000E+00  9.0
        4    1    3    3  500    0 -3.91230643473E+01 -9.60008315786E+00 -2.37632955979E+02  2.41023946013E+02  5.87386917370E-01  0.0000E+00  9.0
       13    1    4    4    0    0  3.99317331267E+01  4.43176537757E+01  1.85271241333E+02  1.94638233100E+02  1.05700000000E-01  0.0000E+00  9.0
      -14    1    4    4    0    0  3.81546410576E+00 -2.98999188675E+01  4.67002212573E+01  5.55830332036E+01  0.00000000000E+00  0.0000E+00  9.0
</event>
<event>
 8    1   5.1859766E+00   4.9550000E+02  -1.0000000E+00   9.3590000E-02
       11   -1    0    0    0    0  0.00000000000E+00  0.00000000000E+00  2.45537920110E+02  2.45537920110E+02  0.00000000000E+00  0.0000E+00  9.0
      -11   -1    0    0    0    0  0.00000000000E+00  0.00000000000E+00 -2.49999761990E+02  2.49999761990E+02  0.00000000000E+00  0.0000E+00  9.0
       24    2    1    2    0    0 -2.46047755720E+01 -7.76707759449E+01 -2.22935977178E+02  2.48775511192E+02  7.45027558643E+01  9.7553E-14  9.0
      -24    2    1    2    0    0  2.46047755720E+01  7.76707759449E+01  2.18474135298E+02  2.46762170904E+02  8.07618522453E+01  1.7271E-14  9.0
       -1    1    3    3    0  500 -8.52568104750E+00 -1.03455620252E+01 -1.40477679615E+02  1.41115896911E+02  0.00000000000E+00  0.0000E+00  9.0
        2    1    3    3  500    0 -1.60790945245E+01 -6.73252139197E+01 -8.24582975636E+01  1.07659614281E+02  0.00000000000E+00  0.0000E+00  9.0
        1    1    4    4  504    0  8.93947686055E+00  5.00422303417E+01  3.78783895599E+01  6.33948851230E+01  0.00000000000E+00  0.0000E+00  9.0
       -2    1    4    4    0  504  1.56652987115E+01  2.76285456032E+01  1.80595745738E+02  1.83367285781E+02  0.00000000000E+00  0.0000E+00  9.0
</event>
<event>
 8    1   5.1859766E+00   4.9950000E+02  -1.0000000E+00   9.3500000E-02
       11   -1    0    0    0    0  0.00000000000E+00  0.00000000000E+00  2.49493715880E+02  2.49493715880E+02  0.00000000000E+00  0.0000E+00  9.0
      -11   -1    0    0    0    0  0.00000000000E+00  0.00000000000E+00 -2.49999974150E+02  2.49999974150E+02  0.00000000000E+00  0.0000E+00  9.0
       24    2    1    2    0    0  3.71438299728E+01  4.33471653751E+01 -2.30916248991E+02  2.50999798536E+02  8.01245528290E+01  5.6842E-14  9.0
      -24    2    1    2    0    0 -3.71438299728E+01 -4.33471653751E+01  2.30409990721E+02  2.48493891490E+02  7.34970028836E+01  1.4154E-13  9.0
       -3    1    3    3    0  500  4.16848250016E+01 -1.06179878039E+01 -1.21995902289E+02  1.29357514183E+02  0.00000000000E+00  0.0000E+00  9.0
        4    1    3    3  500    0 -4.54099502879E+00  5.39651531790E+01 -1.08920346702E+02  1.21642284353E+02  5.87386917370E-01  0.0000E+00  9.0
        1    1    4    4  504    0 -9.06410228519E+00 -2.75581283647E-01 -2.95053472051E+00  9.53622306876E+00  0.00000000000E+00  0.0000E+00  9.0
       -2    1    4    4    0  504 -2.80797276877E+01 -4.30715840914E+01  2.33360525442E+02  2.38957668422E+02  0.00000000000E+00  0.0000E+00  9.0
</event>
<event>
 8    1   5.1859766E+00   4.9980000E+02  -1.0000000E+00   9.3500000E-02
       11   -1    0    0    0    0  0.00000000000E+00  0.00000000000E+00  2.49790495320E+02  2.49790495320E+02  0.00000000000E+00  0.0000E+00  9.0
      -11   -1    0    0    0    0  0.00000000000E+00  0.00000000000E+00 -2.49993417650E+02  2.49993417650E+02  0.00000000000E+00  0.0000E+00  9.0
       24    2    1    2    0    0  2.83520040956E+01 -6.19239438223E+01 -2.26207721794E+02  2.49918764971E+02  8.15539375540E+01  3.6419E-13  9.0
      -24    2    1    2    0    0 -2.83520040956E+01  6.19239438223E+01  2.26004799464E+02  2.49865147990E+02  8.19512772597E+01  1.6642E-14  9.0
       -1    1    3    3    0  500 -1.84156179214E+01 -1.07494836694E+01 -1.13546805942E+01  2.41581281142E+01  0.00000000000E+00  0.0000E+00  9.0
        2    1    3    3  500    0  4.67676220170E+01 -5.11744601529E+01 -2.14853041200E+02  2.25760636857E+02  0.00000000000E+00  0.0000E+00  9.0
        1    1    4    4  504    0 -5.06648452662E+01  2.06639935261E+01  1.58374804034E+02  1.67560453947E+02  0.00000000000E+00  0.0000E+00  9.0
       -2    1    4    4    0  504  2.23128411707E+01  4.12599502962E+01  6.76299954307E+01  8.23046940430E+01  0.00000000000E+00  0.0000E+00  9.0
</event>
<event>
 8    1   5.1859766E+00   4.9240000E+02  -1.0000000E+00   9.3660000E-02
       11   -1    0    0    0    0  0.00000000000E+00  0.00000000000E+00  2.45995676390E+02  2.45995676390E+02  0.00000000000E+00  0.0000E+00  9.0
      -11   -1    0    0    0    0  0.00000000000E+00  0.00000000000E+00 -2.46433306070E+02  2.46433306070E+02  0.00000000000E+00  0.0000E+00  9.0
       24    2    1    2    0    0  6.44092234158E+01 -2.68859181620E+01 -2.23279661724E+02  2.45964313312E+02  7.59818098412E+01  2.6513E-14  9.0
      -24    2    1    2    0    0 -6.44092234158E+01  2.68859181620E+01  2.22842032054E+02  2.46464669147E+02  7.88343911717E+01  8.3657E-14  9.0
       -3    1    3    3    0  500  7.44437578336E+01 -3.60212477578E+01 -2.14241380946E+02  2.29649238362E+02  0.00000000000E+00  0.0000E+00  9.0
        4    1    3    3  500    0 -1.00345344178E+01  9.13532959581E+00 -9.03828077807E+00  1.63150749499E+01  5.87386917370E-01  0.0000E+00  9.0
        1    1    4    4  504    0 -1.12550165864E+01  4.46426453579E+01  7.10987740863E+01  8.47034642708E+01  0.00000000000E+00  0.0000E+00  9.0
       -2    1    4    4    0  504 -5.31542068293E+01 -1.77567271959E+01  1.51743257968E+02  1.61761204876E+02  0.00000000000E+00  0.0000E+00  9.0
</event>
<event>
 8    1   5.1859766E+00   4.7710000E+02  -1.0000000E+00   9.4010000E-02
       11   -1    0    0    0    0  0.00000000000E+00  0.00000000000E+00  2.29096175340E+02  2.29096175340E+02  0.00000000000E+00  0.0000E+00  9.0
      -11   -1    0    0    0    0  0.00000000000E+00  0.00000000000E+00 -2.48398709320E+02  2.48398709320E+02  0.00000000000E+00  0.0000E+00  9.0
       24    2    1    2    0    0  3.35678296623E+01  4.07138291518E+01 -2.28163638275E+02  2.47326990264E+02  7.95460823025E+01  1.0310E-13  9.0
      -24    2    1    2    0    0 -3.35678296623E+01 -4.07138291518E+01  2.08861104295E+02  2.30167894389E+02  8.10548187793E+01  1.1364E-13  9.0
       -3    1    3    3    0  500  4.23405042002E+01  6.00215747018E+01 -1.62718861980E+02  1.78529369488E+02  0.00000000000E+00  0.0000E+00  9.0
        4    1    3    3  500    0 -8.77267453789E+00 -1.93077455500E+01 -6.54447762952E+01  6.87976207764E+01  5.87386917370E-01  0.0000E+00  9.0
        1    1    4    4  504    0 -4.54923752586E+01  7.78642802411E+00  8.73738583630E+01  9.88148561365E+01  0.00000000000E+00  0.0000E+00  9.0
       -2    1    4    4    0  504  1.19245455963E+01 -4.85002571759E+01  1.21487245932E+02  1.31353038252E+02  0.00000000000E+00  0.0000E+00  9.0
</event>
<event>
 8    1   5.1859766E+00   4.7880000E+02  -1.0000000E+00   9.3970000E-02
       11   -1    0    0    0    0  0.00000000000E+00  0.00000000000E+00  2.49999992030E+02  2.49999992030E+02  0.00000000000E+00  0.0000E+00  9.0
      -11   -1    0    0    0    0  0.00000000000E+00  0.00000000000E+00 -2.29216832220E+02  2.29216832220E+02  0.00000000000E+00  0.0000E+00  9.0
       24    2    1    2    0    0 -4.62520543841E+01 -4.73790994344E+01 -2.05119249673E+02  2.30177203535E+02  8.07688482188E+01  6.6285E-14  9.0
      -24    2    1    2    0    0  4.62520543841E+01  4.73790994344E+01  2.25902409483E+02  2.49039620725E+02  8.12699359103E+01  1.4968E-13  9.0
       -3    1    3    3    0  500 -6.23237887596E+01 -4.03497380990E+01 -1.05396103881E+02  1.28921273355E+02  0.00000000000E+00  0.0000E+00  9.0
        4    1    3    3  500    0  1.60717343755E+01 -7.02936133544E+00 -9.97231457917E+01  1.01255930180E+02  5.87386917370E-01  0.0000E+00  9.0
        3    1    4    4  504    0 -2.20565935355E+01  1.44283450256E+01  8.53918292438E+01  8.93668560494E+01  0.00000000000E+00  0.0000E+00  9.0
       -4    1    4    4    0  504  6.83086479195E+01  3.29507544089E+01  1.40510580239E+02  1.59672764676E+02  5.87386917370E-01  0.0000E+00  9.0
</event>
<event>
 8    1   5.1859766E+00   4.9310000E+02  -1.0000000E+00   9.3640000E-02
       11   -1    0    0    0    0  0.00000000000E+00  0.00000000000E+00  2.43179391310E+02  2.43179391310E+02  0.00000000000E+00  0.0000E+00  9.0
      -11   -1    0    0    0    0  0.00000000000E+00  0.00000000000E+00 -2.50000000000E+02  2.50000000000E+02  0.00000000000E+00  0.0000E+00  9.0
       24    2    1    2    0    0  1.92714860436E+01  7.17453144271E+01 -2.24592016346E+02  2.49716695236E+02  7.99879600752E+01  7.4597E-14  9.0
      -24    2    1    2    0    0 -1.92714860436E+01 -7.17453144271E+01  2.17771407656E+02  2.43462696077E+02  7.95670665040E+01  1.3177E-14  9.0
       -1    1    3    3    0  500  2.45720567939E+01  6.21689138086E+01 -2.28512913988E+02  2.38090133517E+02  0.00000000000E+00  0.0000E+00  9.0
        2    1    3    3  500    0 -5.30057075024E+00  9.57640061848E+00  3.92089764204E+00  1.16265617189E+01  0.00000000000E+00  0.0000E+00  9.0
       13    1    4    4    0    0  1.47585387653E+01 -1.79729794056E+01  8.55062846649E+00  2.47783549668E+01  1.05700000000E-01  0.0000E+00  9.0
      -14    1    4    4    0    0 -3.40300248089E+01 -5.37723350215E+01  2.09220779189E+02  2.18684341110E+02  0.00000000000E+00  0.0000E+00  9.0
</event>
<event>
 8    1   5.1859766E+00   4.9590000E+02  -1.0000000E+00   9.3580000E-02
       11   -1    0    0    0    0  0.00000000000E+00  0.00000000000E+00  2.49284375380E+02  2.49284375380E+02  0.00000000000E+00  0.0000E+00  9.0
      -11   -1    0    0    0    0  0.00000000000E+00  0.00000000000E+00 -2.46621601120E+02  2.46621601120E+02  0.00000000000E+00  0.0000E+00  9.0
       24    2    1    2    0    0 -2.61104747948E+01 -4.44506644544E+01 -2.29290922429E+02  2.45095581767E+02  6.95693799664E+01  6.4335E-14  9.0
      -24    2    1    2    0    0  2.61104747948E+01  4.44506644544E+01  2.31953696689E+02  2.50810394731E+02  8.02852304758E+01  2.5742E-13  9.0
       -1    1    3    3    0  500 -1.80263227450E+01  8.15179958553E+00 -1.38106778097E+02  1.39516602254E+02  0.00000000000E+00  0.0000E+00  9.0
        2    1    3    3  500    0 -8.08415204983E+00 -5.26024640400E+01 -9.11841443327E+01  1.05578979514E+02  0.00000000000E+00  0.0000E+00  9.0
        3    1    4    4  504    0 -2.06263199630E+01 -5.52191167883E+00  2.52085458536E+01  3.30364551346E+01  0.00000000000E+00  0.0000E+00  9.0
       -4    1    4    4    0  504  4.67367947579E+01  4.99725761333E+01  2.06745150836E+02  2.17773939596E+02  5.87386917370E-01  0.0000E+00  9.0
</event>
<event>
 8    1   5.1859766E+00   3.2540000E+02  -1.0000000E+00   9.8500000E-02
       11   -1    0    0    0    0  0.00000000000E+00  0.00000000000E+00  2.45971236260E+02  2.45971236260E+02  0.00000000000E+00  0.0000E+00  9.0
      -11   -1    0    0    0    0  0.00000000000E+00  0.00000000000E+00 -1.07593035260E+02  1.07593035260E+02  0.00000000000E+00  0.0000E+00  9.0
       24    2    1    2    0    0  3.06478447752E+01 -2.67199747269E+01 -7.11535799478E+01  1.14358535343E+02  7.97608627565E+01  6.9164E-14  9.0
      -24    2    1    2    0    0 -3.06478447752E+01  2.67199747269E+01  2.09531780956E+02  2.39205736180E+02  1.07993377354E+02  2.9599E-14  9.0
       -3    1    3    3    0  500 -8.77311491440E+00 -2.33056321465E+01  7.75596984585E+00  2.60820839524E+01  0.00000000000E+00  0.0000E+00  9.0
        4    1    3    3  500    0  3.94209596896E+01 -3.41434258041E+00 -7.89095497937E+01  8.82764513907E+01  5.87386917370E-01  0.0000E+00  9.0
        3    1    4    4  504    0 -1.76312545461E+01  2.68089459788E+01  2.95990521456E+00  3.22233108207E+01  0.00000000000E+00  0.0000E+00  9.0
       -4    1    4    4    0  504 -1.30165902292E+01 -8.89712519227E-02  2.06571875741E+02  2.06982425360E+02  5.87386917370E-01  0.0000E+00  9.0
</event>
<event>
 8    1   5.1859766E+00   3.7240000E+02  -1.0000000E+00   9.6870000E-02
       11   -1    0    0    0    0  0.00000000000E+00  0.00000000000E+00  2.49708527080E+02  2.49708527080E+02  0.00000000000E+00  0.0000E+00  9.0
      -11   -1    0    0    0    0  0.00000000000E+00  0.00000000000E+00 -1.38875626290E+02  1.38875626290E+02  0.00000000000E+00  0.0000E+00  9.0
       24    2    1    2    0    0  4.61004264495E+01 -1.20215199290E+01 -1.13159758169E+02  1.46547408481E+02  8.00077858928E+01  9.7249E-14  9.0
      -24    2    1    2    0    0 -4.61004264495E+01  1.20215199290E+01  2.23992658959E+02  2.42036744890E+02  7.83537385799E+01  5.0660E-13  9.0
      -13    1    3    3    0    0 -1.31854253462E+01  1.52100878656E-02  4.75720522433E+00  1.40177689717E+01  1.05700000000E-01  0.0000E+00  9.0
       14    1    3    3    0    0  5.92858517957E+01 -1.20367300169E+01 -1.17916963393E+02  1.32529639509E+02  0.00000000000E+00  0.0000E+00  9.0
        1    1    4    4  500    0  1.24683810315E+01  2.23084002528E+01  1.15726287826E+02  1.18514551602E+02  0.00000000000E+00  0.0000E+00  9.0
       -2    1    4    4    0  500 -5.85688074810E+01 -1.02868803238E+01  1.08266371132E+02  1.23522193288E+02  0.00000000000E+00  0.0000E+00  9.0
</event>
<event>
 8    1   5.1859766E+00   4.9880000E+02  -1.0000000E+00   9.3520000E-02
       11   -1    0    0    0    0  0.00000000000E+00  0.00000000000E+00  2.48863417890E+02  2.48863417890E+02  0.00000000000E+00  0.0000E+00  9.0
      -11   -1    0    0    0    0  0.00000000000E+00  0.00000000000E+00 -2.49968620130E+02  2.49968620130E+02  0.00000000000E+00  0.0000E+00  9.0
       24    2    1    2    0    0  1.45347393693E+01  7.42295123399E+00 -2.36003518989E+02  2.49872701911E+02  8.04509001291E+01  2.9637E-15  9.0
      -24    2    1    2    0    0 -1.45347393693E+01 -7.42295123399E+00  2.34898316749E+02  2.48959336119E+02  8.08527858249E+01  2.2587E-13  9.0
      -13    1    3    3    0    0  3.37380943035E+01  2.73812332694E+01 -7.64681862963E+01  8.79510410997E+01  1.05700000000E-01  0.0000E+00  9.0
       14    1    3    3    0    0 -1.92033549342E+01 -1.99582820354E+01 -1.59535332693E+02  1.61921660812E+02  0.00000000000E+00  0.0000E+00  9.0
        3    1    4    4  500    0  3.22005874796E+01  8.06416225581E+00  9.88894982456E+01  1.04312230396E+02  0.00000000000E+00  0.0000E+00  9.0
       -4    1    4    4    0  500 -4.67353268488E+01 -1.54871134898E+01  1.36008818504E+02  1.44647105723E+02  5.87386917370E-01  0.0000E+00  9.0
</event>
<event>
 8    1   5.1859766E+00   4.2710000E+02  -1.0000000E+00   9.5270000E-02
       11   -1    0    0    0    0  0.00000000000E+00  0.00000000000E+00  1.89576157020E+02  1.89576157020E+02  0.00000000000E+00  0.0000E+00  9.0
      -11   -1    0    0    0    0  0.00000000000E+00  0.00000000000E+00 -2.40579431500E+02  2.40579431500E+02  0.00000000000E+00  0.0000E+00  9.0
       24    2    1    2    0    0 -4.34734497520E+01 -2.90762644304E+01 -2.16892957380E+02  2.37333412041E+02  8.09272730494E+01  2.0089E-14  9.0
      -24    2    1    2    0    0  4.34734497520E+01  2.90762644304E+01  1.65889682900E+02  1.92822176473E+02  8.32203993044E+01  1.8057E-14  9.0
       -1    1    3    3    0  500 -2.03305196807E+00 -1.58669269950E+01 -1.78805120262E+02  1.79519257197E+02  0.00000000000E+00  0.0000E+00  9.0
        2    1    3    3  500    0 -4.14403977839E+01 -1.32093374353E+01 -3.80878371180E+01  5.78141548437E+01  0.00000000000E+00  0.0000E+00  9.0
        3    1    4    4  504    0  6.20169996123E+01  1.87889534814E+01  7.33151434648E+01  9.78480621939E+01  0.00000000000E+00  0.0000E+00  9.0
       -4    1    4    4    0  504 -1.85435498603E+01  1.02873109489E+01  9.25745394354E+01  9.49741142788E+01  5.87386917370E-01  0.0000E+00  9.0
</event>
<event>
 8    1   5.1859766E+00   5.0000000E+02  -1.0000000E+00   9.3490000E-02
       11   -1    0    0    0    0  0.00000000000E+00  0.00000000000E+00  2.49999998610E+02  2.49999998610E+02  0.00000000000E+00  0.0000E+00  9.0
      -11   -1    0    0    0    0  0.00000000000E+00  0.00000000000E+00 -2.49999984380E+02  2.49999984380E+02  0.00000000000E+00  0.0000E+00  9.0
       24    2    1    2    0    0  1.29457725703E+01  4.71322339469E+01 -2.31870239679E+02  2.50181233332E+02  8.02359081605E+01  4.0210E-14  9.0
      -24    2    1    2    0    0 -1.29457725703E+01 -4.71322339469E+01  2.31870253909E+02  2.49818749646E+02  7.90983724401E+01  3.3051E-14  9.0
       -1    1    3    3    0  500  2.64850490784E+01  6.57204446463E+01 -1.70005523303E+02  1.84180652140E+02  0.00000000000E+00  0.0000E+00  9.0
        2    1    3    3  500    0 -1.35392765081E+01 -1.85882106994E+01 -6.18647163762E+01  6.60005811920E+01  0.00000000000E+00  0.0000E+00  9.0
        1    1    4    4  504    0 -4.29542655039E+01 -1.32613846338E+01  1.45863341912E+02  1.52633704538E+02  0.00000000000E+00  0.0000E+00  9.0
       -2    1    4    4    0  504  3.00084929336E+01 -3.38708493131E+01  8.60069119974E+01  9.71850451081E+01  0.00000000000E+00  0.0000E+00  9.0
</event>
<event>
 8    1   5.1859766E+00   4.9420000E+02  -1.0000000E+00   9.3620000E-02
       11   -1    0    0    0    0  0.00000000000E+00  0.00000000000E+00  2.44294149760E+02  2.44294149760E+02  0.00000000000E+00  0.0000E+00  9.0
      -11   -1    0    0    0    0  0.00000000000E+00  0.00000000000E+00 -2.49916614660E+02  2.49916614660E+02  0.00000000000E+00  0.0000E+00  9.0
       24    2    1    2    0    0 -3.86621901722E+01  1.69617561398E+02  1.53422875992E+02  2.45115053648E+02  7.92333803606E+01  1.7320E-13  9.0
      -24    2    1    2    0    0  3.86621901722E+01 -1.69617561398E+02 -1.59045340892E+02  2.49095710770E+02  8.05504225996E+01  8.5202E-14  9.0
       -3    1    3    3    0  500  1.31201576962E+01  6.27583764704E+00 -8.17821469547E-01  1.45668633584E+01  0.00000000000E+00  0.0000E+00  9.0
        4    1    3    3  500    0 -5.17823478684E+01  1.63341723751E+02  1.54240697462E+02  2.30548190289E+02  5.87386917370E-01  0.0000E+00  9.0
        3    1    4    4  504    0 -1.13326180676E+00  2.46496247744E+00 -3.05624687892E+01  3.06826469006E+01  0.00000000000E+00  0.0000E+00  9.0
       -4    1    4    4    0  504  3.97954519789E+01 -1.72082523876E+02 -1.28482872103E+02  2.18413063869E+02  5.87386917370E-01  0.0000E+00  9.0
</event>
<event>
 8    1   5.1859766E+00   4.6810000E+02  -1.0000000E+00   9.4220000E-02
       11   -1    0    0    0    0  0.00000000000E+00  0.00000000000E+00  2.21437624310E+02  2.21437624310E+02  0.00000000000E+00  0.0000E+00  9.0
      -11   -1    0    0    0    0  0.00000000000E+00  0.00000000000E+00 -2.47415650970E+02  2.47415650970E+02  0.00000000000E+00  0.0000E+00  9.0
       24    2    1    2    0    0 -7.22925611871E+01  4.08891021278E+01 -2.16528247934E+02  2.45583267137E+02  8.07992937388E+01  2.2558E-14  9.0
      -24    2    1    2    0    0  7.22925611871E+01 -4.08891021278E+01  1.90550221274E+02  2.23270008139E+02  8.14983228738E+01  1.0904E-14  9.0
       -1    1    3    3    0  500 -1.48009000439E+00  6.21665811022E+00  6.44754258247E+00  9.07790228154E+00  0.00000000000E+00  0.0000E+00  9.0
        2    1    3    3  500    0 -7.08124711827E+01  3.46724440175E+01 -2.22975790516E+02  2.36505364856E+02  0.00000000000E+00  0.0000E+00  9.0
        1    1    4    4  504    0  1.34573178963E+01 -5.25555667758E+01  1.11906151474E+02  1.24363072259E+02  0.00000000000E+00  0.0000E+00  9.0
       -2    1    4    4    0  504  5.88352432908E+01  1.16664646481E+01  7.86440697998E+01  9.89069358799E+01  0.00000000000E+00  0.0000E+00  9.0
</event>
<event>
 8    1   5.1859766E+00   4.9860000E+02  -1.0000000E+00   9.3520000E-02
       11   -1    0    0    0    0  0.00000000000E+00  0.00000000000E+00  2.49998862130E+02  2.49998862130E+02  0.00000000000E+00  0.0000E+00  9.0
      -11   -1    0    0    0    0  0.00000000000E+00  0.00000000000E+00 -2.48584416970E+02  2.48584416970E+02  0.00000000000E+00  0.0000E+00  9.0
       24    2    1    2    0    0  2.27278836900E+01 -1.65688352454E+00 -2.34168669761E+02  2.48236207875E+02  7.91640514516E+01  1.8888E-13  9.0
      -24    2    1    2    0    0 -2.27278836900E+01  1.65688352454E+00  2.35583114911E+02  2.50347071234E+02  8.15778774185E+01  3.7288E-13  9.0
       -3    1    3    3    0  500 -9.65427106162E+00 -3.46496389238E+01 -9.44725830552E+01  1.01088433445E+02  0.00000000000E+00  0.0000E+00  9.0
        4    1    3    3  500    0  3.23821547516E+01  3.29927553992E+01 -1.39696086706E+02  1.47147774429E+02  5.87386917370E-01  0.0000E+00  9.0
        1    1    4    4  504    0 -9.69742288412E+00 -3.74901732002E+01  1.55638611061E+02  1.60383697270E+02  0.00000000000E+00  0.0000E+00  9.0
       -2    1    4    4    0  504 -1.30304608059E+01  3.91470567247E+01  7.99445038502E+01  8.99633739634E+01  0.00000000000E+00  0.0000E+00  9.0
</event>
<event>
 8    1   5.1859766E+00   4.9910000E+02  -1.0000000E+00   9.3510000E-02
       11   -1    0    0    0    0  0.00000000000E+00  0.00000000000E+00  2.49127238840E+02  2.49127238840E+02  0.00000000000E+00  0.0000E+00  9.0
      -11   -1    0    0    0    0  0.00000000000E+00  0.00000000000E+00 -2.49999999970E+02  2.49999999970E+02  0.00000000000E+00  0.0000E+00  9.0
       24    2    1    2    0    0  8.01603578067E+01  2.77833986743E+01 -2.20679445940E+02  2.50093773169E+02  8.15467798970E+01  5.0407E-14  9.0
      -24    2    1    2    0    0 -8.01603578067E+01 -2.77833986743E+01  2.19806684800E+02  2.49033465648E+02  8.06541265156E+01  2.9072E-13  9.0
      -13    1    3    3    0    0 -1.01938028906E+01  2.43371105984E+01 -6.34709848208E+01  6.87370762853E+01  1.05700000000E-01  0.0000E+00  9.0
       14    1    3    3    0    0  9.03541606973E+01  3.44628807598E+00 -1.57208461120E+02  1.81356696883E+02  0.00000000000E+00  0.0000E+00  9.0
       13    1    4    4    0    0 -5.81058473062E+01  1.11277409793E+01  1.78873384047E+02  1.88403330128E+02  1.05700000000E-01  0.0000E+00  9.0
      -14    1    4    4    0    0 -2.20545105005E+01 -3.89111396536E+01  4.09333007536E+01  6.06301355197E+01  0.00000000000E+00  0.0000E+00  9.0
</event>
<event>
 8    1   5.1859766E+00   4.0450000E+02  -1.0000000E+00   9.5900000E-02
       11   -1    0    0    0    0  0.00000000000E+00  0.00000000000E+00  2.23393390500E+02  2.23393390500E+02  0.00000000000E+00  0.0000E+00  9.0
      -11   -1    0    0    0    0  0.00000000000E+00  0.00000000000E+00 -1.83116682890E+02  1.83116682890E+02  0.00000000000E+00  0.0000E+00  9.0
       24    2    1    2    0    0 -1.00979151670E+02  1.05458859206E+02 -1.01288428261E+02  1.95431868208E+02  8.13382404198E+01  1.0017E-14  9.0
      -24    2    1    2    0    0  1.00979151670E+02 -1.05458859206E+02  1.41565135865E+02  2.11078205182E+02  5.65239856491E+01  2.8951E-14  9.0
       -3    1    3    3    0  500  4.76576045709E+00  3.88166986963E+01 -4.09900308393E+01  5.66536071104E+01  0.00000000000E+00  0.0000E+00  9.0
        4    1    3    3  500    0 -1.05744912127E+02  6.66421605093E+01 -6.02983974214E+01  1.38778261097E+02  5.87386917370E-01  0.0000E+00  9.0
        1    1    4    4  504    0  3.01699173873E+01 -2.51587218140E+01  8.32773926682E+00  4.01563997361E+01  0.00000000000E+00  0.0000E+00  9.0
       -2    1    4    4    0  504  7.08092342830E+01 -8.03001373916E+01  1.33237396598E+02  1.70921805446E+02  0.00000000000E+00  0.0000E+00  9.0
</event>
<event>
 8    1   5.1859766E+00   4.3930000E+02  -1.0000000E+00   9.4950000E-02
       11   -1    0    0    0    0  0.00000000000E+00  0.00000000000E+00  2.47734232370E+02  2.47734232370E+02  0.00000000000E+00  0.0000E+00  9.0
      -11   -1    0    0    0    0  0.00000000000E+00  0.00000000000E+00 -1.94728111070E+02  1.94728111070E+02  0.00000000000E+00  0.0000E+00  9.0
       24    2    1    2    0    0 -1.23059492203E+02  1.61723395789E+02  4.85225432201E+01  2.24037507397E+02  8.08719491118E+01  1.0706E-13  9.0
      -24    2    1    2    0    0  1.23059492203E+02 -1.61723395789E+02  4.48357807992E+00  2.18424836030E+02  7.99450508501E+01  2.4755E-13  9.0
       -1    1    3    3    0  500 -8.34816288781E+01  6.57927256757E+01  5.57259386121E+01  1.20013521514E+02  0.00000000000E+00  0.0000E+00  9.0
        2    1    3    3  500    0 -3.95778633252E+01  9.59306701133E+01 -7.20339539205E+00  1.04023985883E+02  0.00000000000E+00  0.0000E+00  9.0
        1    1    4    4  504    0 -3.97449519864E+00 -4.61309305648E+01  5.82000205263E+00  4.66661739459E+01  0.00000000000E+00  0.0000E+00  9.0
       -2    1    4    4    0  504  1.27033987402E+02 -1.15592465224E+02 -1.33642397271E+00  1.71758662084E+02  0.00000000000E+00  0.0000E+00  9.0
</event>
<event>
 8    1   5.1859766E+00   4.5530000E+02  -1.0000000E+00   9.4540000E-02
       11   -1    0    0    0    0  0.00000000000E+00  0.00000000000E+00  2.49124050860E+02  2.49124050860E+02  0.00000000000E+00  0.0000E+00  9.0
      -11   -1    0    0    0    0  0.00000000000E+00  0.00000000000E+00 -2.07984669090E+02  2.07984669090E+02  0.00000000000E+00  0.0000E+00  9.0
       24    2    1    2    0    0  4.91510406308E+01 -4.29259665149E+01 -1.84579259374E+02  2.11891971202E+02  8.10570235866E+01  4.4889E-14  9.0
      -24    2    1    2    0    0 -4.91510406308E+01  4.29259665149E+01  2.25718641144E+02  2.45216748757E+02  7.01704034100E+01  1.0251E-13  9.0
       -1    1    3    3    0  500  5.33026439435E+01 -2.42843612093E+01 -5.31859713112E+01  7.91179473636E+01  0.00000000000E+00  0.0000E+00  9.0
        2    1    3    3  500    0 -4.15160331278E+00 -1.86416053055E+01 -1.31393288062E+02  1.32774023839E+02  0.00000000000E+00  0.0000E+00  9.0
        3    1    4    4  504    0 -5.43589360099E+01  6.32920747467E+00  9.78871595804E+01  1.12146550558E+02  0.00000000000E+00  0.0000E+00  9.0
       -4    1    4    4    0  504  5.20789537914E+00  3.65967590402E+01  1.27831481563E+02  1.33070198198E+02  5.87386917370E-01  0.0000E+00  9.0
</event>
<event>
 8    1   5.1859766E+00   4.7630000E+02  -1.0000000E+00   9.4030000E-02
       11   -1    0    0    0    0  0.00000000000E+00  0.00000000000E+00  2.27648644350E+02  2.27648644350E+02  0.00000000000E+00  0.0000E+00  9.0
      -11   -1    0    0    0    0  0.00000000000E+00  0.00000000000E+00 -2.49173690150E+02  2.49173690150E+02  0.00000000000E+00  0.0000E+00  9.0
       24    2    1    2    0    0 -1.49920425658E+01 -7.13272559380E+00 -2.34571302588E+02  2.47263418033E+02  7.64190080076E+01  5.7624E-15  9.0
      -24    2    1    2    0    0  1.49920425658E+01  7.13272559380E+00  2.13046256788E+02  2.29558916466E+02  8.38626942286E+01  3.3766E-14  9.0
       -3    1    3    3    0  500 -3.22517855960E+01 -3.12710255594E+01 -1.02731622352E+02  1.12124221044E+02  0.00000000000E+00  0.0000E+00  9.0
        4    1    3    3  500    0  1.72597430302E+01  2.41382999656E+01 -1.31839680236E+02  1.35139196989E+02  5.87386917370E-01  0.0000E+00  9.0
        3    1    4    4  504    0 -2.16094172810E+01  1.67826014526E+01  2.28964615245E+01  3.56773117974E+01  0.00000000000E+00  0.0000E+00  9.0
       -4    1    4    4    0  504  3.66014598468E+01 -9.64987585884E+00  1.90149795263E+02  1.93881604669E+02  5.87386917370E-01  0.0000E+00  9.0
</event>
<event>
 8    1   5.1859766E+00   4.9890000E+02  -1.0000000E+00   9.3520000E-02
       11   -1    0    0    0    0  0.00000000000E+00  0.00000000000E+00  2.48917762470E+02  2.48917762470E+02  0.00000000000E+00  0.0000E+00  9.0
      -11   -1    0    0    0    0  0.00000000000E+00  0.00000000000E+00 -2.49966197120E+02  2.49966197120E+02  0.00000000000E+00  0.0000E+00  9.0
       24    2    1    2    0    0 -5.51394192971E+00 -4.66392185695E+01 -2.31781590475E+02  2.50140683381E+02  8.14986842514E+01  1.0230E-13  9.0
      -24    2    1    2    0    0  5.51394192971E+00  4.66392185695E+01  2.30733155825E+02  2.48743276217E+02  8.01860835905E+01  2.6848E-14  9.0
       -1    1    3    3    0  500 -3.32853176373E+01  4.04608398798E+00 -5.79285933441E+01  6.69328401659E+01  0.00000000000E+00  0.0000E+00  9.0
        2    1    3    3  500    0  2.77713757076E+01 -5.06853025575E+01 -1.73852997131E+02  1.83207843215E+02  0.00000000000E+00  0.0000E+00  9.0
        1    1    4    4  504    0 -1.88832583041E+01  5.79787663777E+01  1.92983673151E+02  2.02387778529E+02  0.00000000000E+00  0.0000E+00  9.0
       -2    1    4    4    0  504  2.43972002338E+01 -1.13395478082E+01  3.77494826739E+01  4.63554976878E+01  0.00000000000E+00  0.0000E+00  9.0
</event>
<event>
 8    1   5.1859766E+00   4.9960000E+02  -1.0000000E+00   9.3500000E-02
       11   -1    0    0    0    0  0.00000000000E+00  0.00000000000E+00  2.49749683520E+02  2.49749683520E+02  0.00000000000E+00  0.0000E+00  9.0
      -11   -1    0    0    0    0  0.00000000000E+00  0.00000000000E+00 -2.49868754300E+02  2.49868754300E+02  0.00000000000E+00  0.0000E+00  9.0
       24    2    1    2    0    0 -1.11255322474E+02 -8.13589051163E+01 -1.92229613860E+02  2.49758893321E+02  8.01889152407E+01  3.4056E-14  9.0
      -24    2    1    2    0    0  1.11255322474E+02  8.13589051163E+01  1.92110543080E+02  2.49859544507E+02  8.07855989524E+01  1.1754E-14  9.0
      -13    1    3    3    0    0 -5.63670954768E+01 -6.66412881721E+01 -1.65179055177E+02  1.86821953162E+02  1.05700000000E-01  0.0000E+00  9.0
       14    1    3    3    0    0 -5.48882269973E+01 -1.47176169443E+01 -2.70505586828E+01  6.29369401582E+01  0.00000000000E+00  0.0000E+00  9.0
        3    1    4    4  500    0  9.28364173536E+01  9.09441493913E+01  1.27768987576E+02  1.82248053163E+02  0.00000000000E+00  0.0000E+00  9.0
       -4    1    4    4    0  500  1.84189051205E+01 -9.58524427496E+00  6.43415555039E+01  6.76114913436E+01  5.87386917370E-01  0.0000E+00  9.0
</event>
<event>
 8    1   5.1859766E+00   4.4100000E+02  -1.0000000E+00   9.4900000E-02
       11   -1    0    0    0    0  0.00000000000E+00  0.00000000000E+00  2.05149847290E+02  2.05149847290E+02  0.00000000000E+00  0.0000E+00  9.0
      -11   -1    0    0    0    0  0.00000000000E+00  0.00000000000E+00 -2.37036115510E+02  2.37036115510E+02  0.00000000000E+00  0.0000E+00  9.0
       24    2    1    2    0    0  1.34028199926E+02 -4.02866073576E+01 -1.68406087629E+02  2.30673503941E+02  7.25471292488E+01  6.5561E-15  9.0
      -24    2    1    2    0    0 -1.34028199926E+02  4.02866073576E+01  1.36519819419E+02  2.11512458865E+02  8.07049568077E+01  7.4330E-14  9.0
       -3    1    3    3    0  500  9.22197370307E+01 -4.28571135974E+01 -1.57344863157E+02  1.87346251753E+02  0.00000000000E+00  0.0000E+00  9.0
        4    1    3    3  500    0  4.18084628955E+01  2.57050623975E+00 -1.10612244721E+01  4.33272521887E+01  5.87386917370E-01  0.0000E+00  9.0
        3    1    4    4  504    0 -1.15262513326E+02 -4.87435944328E-01  1.10250606867E+02  1.59501977689E+02  0.00000000000E+00  0.0000E+00  9.0
       -4    1    4    4    0  504 -1.87656866003E+01  4.07740433019E+01  2.62692125514E+01  5.20104811767E+01  5.87386917370E-01  0.0000E+00  9.0
</event>
<event>
 8    1   5.1859766E+00   5.0000000E+02  -1.0000000E+00   9.3490000E-02
       11   -1    0    0    0    0  0.00000000000E+00  0.00000000000E+00  2.50000000000E+02  2.50000000000E+02  0.00000000000E+00  0.0000E+00  9.0
      -11   -1    0    0    0    0  0.00000000000E+00  0.00000000000E+00 -2.49999911550E+02  2.49999911550E+02  0.00000000000E+00  0.0000E+00  9.0
       24    2    1    2    0    0  3.99687218639E+01  1.56366075937E+01 -2.35524238281E+02  2.47628357676E+02  6.32940319690E+01  8.2464E-14  9.0
      -24    2    1    2    0    0 -3.99687218639E+01 -1.56366075937E+01  2.35524326731E+02  2.52371553866E+02  7.98604438646E+01  4.3296E-13  9.0
       -3    1    3    3    0  500  1.81305697151E+01 -2.44388822999E+01 -8.20612843210E+01  8.75216025372E+01  0.00000000000E+00  0.0000E+00  9.0
        4    1    3    3  500    0  2.18381521488E+01  4.00754898937E+01 -1.53462953960E+02  1.60106755139E+02  5.87386917370E-01  0.0000E+00  9.0
       13    1    4    4    0    0 -1.21469462108E+01  2.60728738247E+01  1.54005716237E+02  1.56668806270E+02  1.05700000000E-01  0.0000E+00  9.0
      -14    1    4    4    0    0 -2.78217756531E+01 -4.17094814184E+01  8.15186104939E+01  9.57027475966E+01  0.00000000000E+00  0.0000E+00  9.0
</event>
<event>
 8    1   5.1859766E+00   4.7850000E+02  -1.0000000E+00   9.3980000E-02
       11   -1    0    0    0    0  0.00000000000E+00  0.00000000000E+00  2.44766399670E+02  2.44766399670E+02  0.00000000000E+00  0.0000E+00  9.0
      -11   -1    0    0    0    0  0.00000000000E+00  0.00000000000E+00 -2.33893488990E+02  2.33893488990E+02  0.00000000000E+00  0.0000E+00  9.0
       24    2    1    2    0    0 -1.51602471003E+01 -1.92134793426E+01 -2.19185789716E+02  2.32917296340E+02  7.48936955966E+01  9.9329E-14  9.0
      -24    2    1    2    0    0  1.51602471003E+01  1.92134793426E+01  2.30058700396E+02  2.45742592329E+02  8.28457915399E+01  1.2583E-14  9.0
       -1    1    3    3    0  500 -3.97167818507E+01  2.56498495305E+00 -1.63533710491E+02  1.68307089498E+02  0.00000000000E+00  0.0000E+00  9.0
        2    1    3    3  500    0  2.45565347505E+01 -2.17784642956E+01 -5.56520792256E+01  6.46102068419E+01  0.00000000000E+00  0.0000E+00  9.0
        3    1    4    4  504    0  3.28841193926E+01  1.34906022076E+01  2.23002231612E+02  2.25817087396E+02  0.00000000000E+00  0.0000E+00  9.0
       -4    1    4    4    0  504 -1.77238722923E+01  5.72287713498E+00  7.05646878462E+00  1.99255049330E+01  5.87386917370E-01  0.0000E+00  9.0
</event>
<event>
 8    1   5.1859766E+00   4.9000000E+02  -1.0000000E+00   9.3720000E-02
       11   -1    0    0    0    0  0.00000000000E+00  0.00000000000E+00  2.44802166820E+02  2.44802166820E+02  0.00000000000E+00  0.0000E+00  9.0
      -11   -1    0    0    0    0  0.00000000000E+00  0.00000000000E+00 -2.45163666540E+02  2.45163666540E+02  0.00000000000E+00  0.0000E+00  9.0
       24    2    1    2    0    0  3.91158359115E-01 -7.64509852277E+01 -2.17455008225E+02  2.46171871955E+02  8.64233984074E+01  1.6189E-14  9.0
      -24    2    1    2    0    0 -3.91158359115E-01  7.64509852277E+01  2.17093508515E+02  2.43793961406E+02  8.03803336104E+01  3.1043E-14  9.0
       -3    1    3    3    0  500  4.17851034022E+01 -2.27590614460E+01 -9.09444372966E+01  1.02639468137E+02  0.00000000000E+00  0.0000E+00  9.0
        4    1    3    3  500    0 -4.13939450431E+01 -5.36919237818E+01 -1.26510570929E+02  1.43532403818E+02  5.87386917370E-01  0.0000E+00  9.0
        1    1    4    4  504    0  5.50202458558E+00  8.02548301942E+01  2.21401409814E+02  2.35562506167E+02  0.00000000000E+00  0.0000E+00  9.0
       -2    1    4    4    0  504 -5.89318294469E+00 -3.80384496650E+00 -4.30790129875E+00  8.23145523881E+00  0.00000000000E+00  0.0000E+00  9.0
</event>
<event>
 8    1   5.1859766E+00   3.4800000E+02  -1.0000000E+00   9.7680000E-02
       11   -1    0    0    0    0  0.00000000000E+00  0.00000000000E+00  1.23498559820E+02  1.23498559820E+02  0.00000000000E+00  0.0000E+00  9.0
      -11   -1    0    0    0    0  0.00000000000E+00  0.00000000000E+00 -2.45136631980E+02  2.45136631980E+02  0.00000000000E+00  0.0000E+00  9.0
       24    2    1    2    0    0  2.24190586151E+01  2.20441328448E+01 -2.21340488714E+02  2.38193596571E+02  8.21950091006E+01  2.3072E-14  9.0
      -24    2    1    2    0    0 -2.24190586151E+01 -2.20441328448E+01  9.97024165551E+01  1.30441595225E+02  7.80120498114E+01  3.7068E-14  9.0
       -3    1    3    3    0  500  1.46040257751E+01 -1.90485899402E+01 -1.71285725243E+02  1.72959318973E+02  0.00000000000E+00  0.0000E+00  9.0
        4    1    3    3  500    0  7.81503284009E+00  4.10927227850E+01 -5.00547634713E+01  6.52342775980E+01  5.87386917370E-01  0.0000E+00  9.0
        3    1    4    4  504    0 -3.60791204825E+00 -3.23201163405E+01  1.03655479516E+02  1.08637311193E+02  0.00000000000E+00  0.0000E+00  9.0
       -4    1    4    4    0  504 -1.88111465669E+01  1.02759834957E+01 -3.95306296086E+00  2.18042840315E+01  5.87386917370E-01  0.0000E+00  9.0
</event>
<event>
 8    1   5.1859766E+00   5.0000000E+02  -1.0000000E+00   9.3490000E-02
       11   -1    0    0    0    0  0.00000000000E+00  0.00000000000E+00  2.49991393750E+02  2.49991393750E+02  0.00000000000E+00  0.0000E+00  9.0
      -11   -1    0    0    0    0  0.00000000000E+00  0.00000000000E+00 -2.49999936170E+02  2.49999936170E+02  0.00000000000E+00  0.0000E+00  9.0
       24    2    1    2    0    0  1.25574042633E+02 -1.98317225668E+02 -3.21708639639E+01  2.50165226749E+02  8.03063758765E+01  6.7700E-15  9.0
      -24    2    1    2    0    0 -1.25574042633E+02  1.98317225668E+02  3.21623215429E+01  2.49826103156E+02  7.92471116931E+01  1.5179E-13  9.0
       -3    1    3    3    0  500  1.99393914744E+01 -1.29365491469E+01  1.93710106511E+01  3.06621866448E+01  0.00000000000E+00  0.0000E+00  9.0
        4    1    3    3  500    0  1.05634651158E+02 -1.85380676521E+02 -5.15418746150E+01  2.19503040104E+02  5.87386917370E-01  0.0000E+00  9.0
       13    1    4    4    0    0 -1.09081857713E+02  1.74008076702E+02 -1.19822913384E+00  2.05375532538E+02  1.05700000000E-01  0.0000E+00  9.0
      -14    1    4    4    0    0 -1.64921849199E+01  2.43091489652E+01  3.33605506767E+01  4.44505706184E+01  0.00000000000E+00  0.0000E+00  9.0
</event>
<event>
 8    1   5.1859766E+00   4.6350000E+02  -1.0000000E+00   9.4340000E-02
       11   -1    0    0    0    0  0.00000000000E+00  0.00000000000E+00  2.18449870870E+02  2.18449870870E+02  0.00000000000E+00  0.0000E+00  9.0
      -11   -1    0    0    0    0  0.00000000000E+00  0.00000000000E+00 -2.45818704660E+02  2.45818704660E+02  0.00000000000E+00  0.0000E+00  9.0
       24    2    1    2    0    0  2.06063211645E+01  7.41331805671E+00 -2.31055353001E+02  2.43749531326E+02  7.44827504482E+01  8.8673E-14  9.0
      -24    2    1    2    0    0 -2.06063211645E+01 -7.41331805671E+00  2.03686519211E+02  2.20519044207E+02  8.16141715193E+01  7.2347E-14  9.0
       -3    1    3    3    0  500  1.74198827915E+01  3.33785219624E+01 -6.09349990752E+01  7.16285708161E+01  0.00000000000E+00  0.0000E+00  9.0
        4    1    3    3  500    0  3.18643837307E+00 -2.59652039057E+01 -1.70120353926E+02  1.72120960510E+02  5.87386917370E-01  0.0000E+00  9.0
        1    1    4    4  504    0  1.79133467543E+01 -3.30286686241E+01  1.05224821642E+02  1.11732018833E+02  0.00000000000E+00  0.0000E+00  9.0
       -2    1    4    4    0  504 -3.85196679188E+01  2.56153505674E+01  9.84616975696E+01  1.08787025373E+02  0.00000000000E+00  0.0000E+00  9.0
</event>
<event>
 8    1   5.1859766E+00   4.8030000E+02  -1.0000000E+00   9.3940000E-02
       11   -1    0    0    0    0  0.00000000000E+00  0.00000000000E+00  2.49913229020E+02  2.49913229020E+02  0.00000000000E+00  0.0000E+00  9.0
      -11   -1    0    0    0    0  0.00000000000E+00  0.00000000000E+00 -2.30764261030E+02  2.30764261030E+02  0.00000000000E+00  0.0000E+00  9.0
       24    2    1    2    0    0  2.71627592218E+01  2.48020524134E+01 -2.14197733834E+02  2.31269199685E+02  7.90684276476E+01  7.2841E-14  9.0
      -24    2    1    2    0    0 -2.71627592218E+01 -2.48020524134E+01  2.33346701824E+02  2.49408290369E+02  8.00053420704E+01  1.7427E-13  9.0
       -1    1    3    3    0  500  2.08606671498E+01  5.45537925530E+00 -6.42014751780E+00  2.24977085701E+01  0.00000000000E+00  0.0000E+00  9.0
        2    1    3    3  500    0  6.30209207203E+00  1.93466731581E+01 -2.07777586317E+02  2.08771491115E+02  0.00000000000E+00  0.0000E+00  9.0
        3    1    4    4  504    0  2.20475988916E+01  6.75513424580E+00  3.00821513317E+01  3.79033545257E+01  0.00000000000E+00  0.0000E+00  9.0
       -4    1    4    4    0  504 -4.92103581134E+01 -3.15571866592E+01  2.03264550493E+02  2.11504935843E+02  5.87386917370E-01  0.0000E+00  9.0
</event>
<event>
 8    1   5.1859766E+00   4.9350000E+02  -1.0000000E+00   9.3630000E-02
       11   -1    0    0    0    0  0.00000000000E+00  0.00000000000E+00  2.49623427520E+02  2.49623427520E+02  0.00000000000E+00  0.0000E+00  9.0
      -11   -1    0    0    0    0  0.00000000000E+00  0.00000000000E+00 -2.43951503620E+02  2.43951503620E+02  0.00000000000E+00  0.0000E+00  9.0
       24    2    1    2    0    0 -1.74828738780E+00 -1.78381437366E+02 -1.49638963747E+02  2.45192293259E+02  7.68404027624E+01  5.2633E-14  9.0
      -24    2    1    2    0    0  1.74828738780E+00  1.78381437366E+02  1.55310887647E+02  2.48382637890E+02  7.58252548819E+01  9.8683E-14  9.0
       -1    1    3    3    0  500 -1.71099576661E+01 -4.62993555787E+01 -6.44371150595E+00  4.97785334890E+01  0.00000000000E+00  0.0000E+00  9.0
        2    1    3    3  500    0  1.53616702783E+01 -1.32082081787E+02 -1.43195252241E+02  1.95413759770E+02  0.00000000000E+00  0.0000E+00  9.0
        1    1    4    4  504    0 -3.03305443617E+01  1.38581336541E+02  1.24151152642E+02  1.88515881191E+02  0.00000000000E+00  0.0000E+00  9.0
       -2    1    4    4    0  504  3.20788317495E+01  3.98001008243E+01  3.11597350049E+01  5.98667566987E+01  0.00000000000E+00  0.0000E+00  9.0
</event>
<event>
 8    1   5.1859766E+00   1.8920000E+02  -1.0000000E+00   1.0570000E-01
       11   -1    0    0    0    0  0.00000000000E+00  0.00000000000E+00  3.57959462060E+01  3.57959462060E+01  0.00000000000E+00  0.0000E+00  9.0
      -11   -1    0    0    0    0  0.00000000000E+00  0.00000000000E+00 -2.49918211400E+02  2.49918211400E+02  0.00000000000E+00  0.0000E+00  9.0
       24    2    1    2    0    0 -2.26375216975E+01 -2.01067288506E+01 -1.61971150284E+02  1.84012084211E+02  8.19088253972E+01  1.6709E-13  9.0
      -24    2    1    2    0    0  2.26375216975E+01  2.01067288506E+01 -5.21511149033E+01  1.01702073388E+02  8.18952685578E+01  2.3542E-14  9.0
       -3    1    3    3    0  500 -5.14521148822E+00  2.00489895651E+01 -1.24968182581E+02  1.26670761589E+02  0.00000000000E+00  0.0000E+00  9.0
        4    1    3    3  500    0 -1.74923102093E+01 -4.01557184157E+01 -3.70029677026E+01  5.73413226228E+01  5.87386917370E-01  0.0000E+00  9.0
        3    1    4    4  504    0  1.57357436135E+01  2.37677986298E+01 -7.35679418244E+01  7.88971732260E+01  0.00000000000E+00  0.0000E+00  9.0
       -4    1    4    4    0  504  6.90177808406E+00 -3.66106977922E+00  2.14168269212E+01  2.28049001623E+01  5.87386917370E-01  0.0000E+00  9.0
</event>
<event>
 8    1   5.1859766E+00   4.2790000E+02  -1.0000000E+00   9.5250000E-02
       11   -1    0    0    0    0  0.00000000000E+00  0.00000000000E+00  2.26822272390E+02  2.26822272390E+02  0.00000000000E+00  0.0000E+00  9.0
      -11   -1    0    0    0    0  0.00000000000E+00  0.00000000000E+00 -2.01827896410E+02  2.01827896410E+02  0.00000000000E+00  0.0000E+00  9.0
       24    2    1    2    0    0 -2.40837527144E+01 -6.28471433367E+01 -1.74612896905E+02  2.03527402262E+02  8.00246782912E+01  8.3699E-14  9.0
      -24    2    1    2    0    0  2.40837527144E+01  6.28471433367E+01  1.99607272875E+02  2.25122766530E+02  7.94191793900E+01  1.2955E-14  9.0
       -1    1    3    3    0  500 -2.48110799696E+01 -1.27708969624E+01 -7.24917223900E+00  2.88311636365E+01  0.00000000000E+00  0.0000E+00  9.0
        2    1    3    3  500    0  7.27327255206E-01 -5.00762463743E+01 -1.67363724666E+02  1.74696238626E+02  0.00000000000E+00  0.0000E+00  9.0
        3    1    4    4  504    0 -2.36647283621E+01  6.93524166066E+00  8.86354921587E+01  9.20019968020E+01  0.00000000000E+00  0.0000E+00  9.0
       -4    1    4    4    0  504  4.77484810765E+01  5.59119016761E+01  1.10971780716E+02  1.33120769728E+02  5.87386917370E-01  0.0000E+00  9.0
</event>
<event>
 8    1   5.1859766E+00   4.9850000E+02  -1.0000000E+00   9.3520000E-02
       11   -1    0    0    0    0  0.00000000000E+00  0.00000000000E+00  2.48466344930E+02  2.48466344930E+02  0.00000000000E+00  0.0000E+00  9.0
      -11   -1    0    0    0    0  0.00000000000E+00  0.00000000000E+00 -2.49990313170E+02  2.49990313170E+02  0.00000000000E+00  0.0000E+00  9.0
       24    2    1    2    0    0 -1.86419968650E+01 -1.49277527483E+02 -1.84640332860E+02  2.50802325848E+02  7.86031161824E+01  5.1068E-13  9.0
      -24    2    1    2    0    0  1.86419968650E+01  1.49277527483E+02  1.83116364620E+02  2.47654332248E+02  7.19010502757E+01  4.3389E-16  9.0
       -1    1    3    3    0  500 -4.34668272422E+01 -6.72507396623E+01 -1.16240397767E+02  1.41151893819E+02  0.00000000000E+00  0.0000E+00  9.0
        2    1    3    3  500    0  2.48248303773E+01 -8.20267878207E+01 -6.83999350929E+01  1.09650432029E+02  0.00000000000E+00  0.0000E+00  9.0
        1    1    4    4  504    0  1.52989471406E+01  9.56696607672E+01  1.64305961384E+02  1.90743782916E+02  0.00000000000E+00  0.0000E+00  9.0
       -2    1    4    4    0  504  3.34304972438E+00  5.36078667158E+01  1.88104032362E+01  5.69105493313E+01  0.00000000000E+00  0.0000E+00  9.0
</event>
<event>
 8    1   5.1859766E+00   4.9090000E+02  -1.0000000E+00   9.3690000E-02
       11   -1    0    0    0    0  0.00000000000E+00  0.00000000000E+00  2.49664615970E+02  2.49664615970E+02  0.00000000000E+00  0.0000E+00  9.0
      -11   -1    0    0    0    0  0.00000000000E+00  0.00000000000E+00 -2.41313177780E+02  2.41313177780E+02  0.00000000000E+00  0.0000E+00  9.0
       24    2    1    2    0    0  4.11457076918E+01 -5.03428642266E+01 -2.18563113814E+02  2.41525388918E+02  7.96071952267E+01  7.0327E-14  9.0
      -24    2    1    2    0    0 -4.11457076918E+01  5.03428642266E+01  2.26914552004E+02  2.49452404832E+02  8.06778477954E+01  9.9484E-14  9.0
       -3    1    3    3    0  500  5.05359428923E+01 -6.48237002024E+01 -1.52476026491E+02  1.73219318456E+02  0.00000000000E+00  0.0000E+00  9.0
        4    1    3    3  500    0 -9.39023520048E+00  1.44808359758E+01 -6.60870873236E+01  6.83060704622E+01  5.87386917370E-01  0.0000E+00  9.0
        1    1    4    4  504    0 -4.31116529457E+01  7.80485039875E+00  4.57284853177E+01  6.33294929627E+01  0.00000000000E+00  0.0000E+00  9.0
       -2    1    4    4    0  504  1.96594525390E+00  4.25380138278E+01  1.81186066687E+02  1.86122911869E+02  0.00000000000E+00  0.0000E+00  9.0
</event>
<event>
 8    1   5.1859766E+00   4.6320000E+02  -1.0000000E+00   9.4340000E-02
       11   -1    0    0    0    0  0.00000000000E+00  0.00000000000E+00  2.48793413600E+02  2.48793413600E+02  0.00000000000E+00  0.0000E+00  9.0
      -11   -1    0    0    0    0  0.00000000000E+00  0.00000000000E+00 -2.15562179280E+02  2.15562179280E+02  0.00000000000E+00  0.0000E+00  9.0
       24    2    1    2    0    0  7.19170810285E+01 -1.85989275196E+02 -7.12661164747E+01  2.26549718730E+02  8.05098668952E+01  4.1854E-14  9.0
      -24    2    1    2    0    0 -7.19170810285E+01  1.85989275196E+02  1.04497350791E+02  2.37805874160E+02  7.66019610131E+01  3.2364E-14  9.0
       -1    1    3    3    0  500  4.23246201175E+01 -3.96942030805E+01  6.25295043541E+00  5.83618249838E+01  0.00000000000E+00  0.0000E+00  9.0
        2    1    3    3  500    0  2.95924609109E+01 -1.46295072115E+02 -7.75190669101E+01  1.68187893746E+02  0.00000000000E+00  0.0000E+00  9.0
        1    1    4    4  504    0 -3.04058808491E+01  1.61324159767E+01  3.65661453152E+01  5.02180786039E+01  0.00000000000E+00  0.0000E+00  9.0
       -2    1    4    4    0  504 -4.15112001794E+01  1.69856859219E+02  6.79312054755E+01  1.87587795556E+02  0.00000000000E+00  0.0000E+00  9.0
</event>
<event>
 8    1   5.1859766E+00   4.9980000E+02  -1.0000000E+00   9.3490000E-02
       11   -1    0    0    0    0  0.00000000000E+00  0.00000000000E+00  2.49999997950E+02  2.49999997950E+02  0.00000000000E+00  0.0000E+00  9.0
      -11   -1    0    0    0    0  0.00000000000E+00  0.00000000000E+00 -2.49818984020E+02  2.49818984020E+02  0.00000000000E+00  0.0000E+00  9.0
       24    2    1    2    0    0 -1.00099546015E+02 -2.50249943237E+01 -2.11021013084E+02  2.50240508564E+02  8.62802104195E+01  1.8655E-14  9.0
      -24    2    1    2    0    0  1.00099546015E+02  2.50249943237E+01  2.11202027014E+02  2.49578473407E+02  8.38865228740E+01  1.7308E-15  9.0
      -13    1    3    3    0    0 -5.77637762669E+01 -2.91561651957E+01 -1.93858411381E+02  2.04371795151E+02  1.05700000000E-01  0.0000E+00  9.0
       14    1    3    3    0    0 -4.23357697484E+01  4.13117087202E+00 -1.71626017030E+01  4.58687134131E+01  0.00000000000E+00  0.0000E+00  9.0
        3    1    4    4  500    0  7.26773832610E+01  4.37053901025E+00  5.94683734577E+01  9.40084628669E+01  0.00000000000E+00  0.0000E+00  9.0
       -4    1    4    4    0  500  2.74221627543E+01  2.06544553134E+01  1.51733653557E+02  1.55570010540E+02  5.87386917370E-01  0.0000E+00  9.0
</event>
<event>
 8    1   5.1859766E+00   4.6530000E+02  -1.0000000E+00   9.4290000E-02
       11   -1    0    0    0    0  0.00000000000E+00  0.00000000000E+00  2.20373067410E+02  2.20373067410E+02  0.00000000000E+00  0.0000E+00  9.0
      -11   -1    0    0    0    0  0.00000000000E+00  0.00000000000E+00 -2.45600379730E+02  2.45600379730E+02  0.00000000000E+00  0.0000E+00  9.0
       24    2    1    2    0    0  3.51222073283E+01 -4.90713678870E+01 -2.23200438613E+02  2.44033296151E+02  7.80528362055E+01  1.8453E-14  9.0
      -24    2    1    2    0    0 -3.51222073283E+01  4.90713678870E+01  1.97973126293E+02  2.21940150987E+02  8.01405221617E+01  4.9881E-14  9.0
       -1    1    3    3    0  500 -1.05432262143E+01 -3.87018126364E+01 -4.73593450866E+01  6.20636567354E+01  0.00000000000E+00  0.0000E+00  9.0
        2    1    3    3  500    0  4.56654335425E+01 -1.03695552506E+01 -1.75841093526E+02  1.81969639416E+02  0.00000000000E+00  0.0000E+00  9.0
        3    1    4    4  504    0 -2.18944283228E+01  7.12122562575E+01  1.48961171548E+02  1.66553240922E+02  0.00000000000E+00  0.0000E+00  9.0
       -4    1    4    4    0  504 -1.32277790054E+01 -2.21408883705E+01  4.90119547452E+01  5.53869100653E+01  5.87386917370E-01  0.0000E+00  9.0
</event>
<event>
 8    1   5.1859766E+00   4.9240000E+02  -1.0000000E+00   9.3660000E-02
       11   -1    0    0    0    0  0.00000000000E+00  0.00000000000E+00  2.42494625400E+02  2.42494625400E+02  0.00000000000E+00  0.0000E+00  9.0
      -11   -1    0    0    0    0  0.00000000000E+00  0.00000000000E+00 -2.49999362570E+02  2.49999362570E+02  0.00000000000E+00  0.0000E+00  9.0
       24    2    1    2    0    0  1.89515101813E+02  1.33223675092E+02 -2.36419091915E+01  2.46528558372E+02  8.09497918632E+01  7.2910E-14  9.0
      -24    2    1    2    0    0 -1.89515101813E+02 -1.33223675092E+02  1.61371720225E+01  2.45965429595E+02  8.10805945639E+01  3.3544E-14  9.0
      -13    1    3    3    0    0  1.80101424689E+02  1.44198860091E+02 -1.97794478283E+01  2.31562242508E+02  1.05700000000E-01  0.0000E+00  9.0
       14    1    3    3    0    0  9.41367712387E+00 -1.09751849991E+01 -3.86246136321E+00  1.49663158639E+01  0.00000000000E+00  0.0000E+00  9.0
        3    1    4    4  500    0 -1.35308380040E+02 -4.87085810961E+01 -2.56695378588E+00  1.43831404196E+02  0.00000000000E+00  0.0000E+00  9.0
       -4    1    4    4    0  500 -5.42067217736E+01 -8.45150939957E+01  1.87041258084E+01  1.02134025399E+02  5.87386917370E-01  0.0000E+00  9.0
</event>
<event>
 8    1   5.1859766E+00   4.9050000E+02  -1.0000000E+00   9.3700000E-02
       11   -1    0    0    0    0  0.00000000000E+00  0.00000000000E+00  2.40603593790E+02  2.40603593790E+02  0.00000000000E+00  0.0000E+00  9.0
      -11   -1    0    0    0    0  0.00000000000E+00  0.00000000000E+00 -2.49986096710E+02  2.49986096710E+02  0.00000000000E+00  0.0000E+00  9.0
       24    2    1    2    0    0  1.51245789051E+02 -8.67194339925E+01 -1.57653402475E+02  2.48076768952E+02  7.93217438296E+01  8.6057E-15  9.0
      -24    2    1    2    0    0 -1.51245789051E+02  8.67194339925E+01  1.48270899545E+02  2.42512921549E+02  8.02041677755E+01  1.9366E-13  9.0
       -1    1    3    3    0  500  1.73203371537E+00  1.20855781092E+01 -1.22828415794E+01  1.73184680699E+01  0.00000000000E+00  0.0000E+00  9.0
        2    1    3    3  500    0  1.49513755336E+02 -9.88050121017E+01 -1.45370560895E+02  2.30758300882E+02  0.00000000000E+00  0.0000E+00  9.0
       13    1    4    4    0    0 -5.72421992535E+01  7.80325454639E+01  6.45125250121E+01  1.16308316912E+02  1.05700000000E-01  0.0000E+00  9.0
      -14    1    4    4    0    0 -9.40035897980E+01  8.68688852859E+00  8.37583745324E+01  1.26204604637E+02  0.00000000000E+00  0.0000E+00  9.0
</event>
<event>
 8    1   5.1859766E+00   5.0000000E+02  -1.0000000E+00   9.3490000E-02
       11   -1    0    0    0    0  0.00000000000E+00  0.00000000000E+00  2.49975488640E+02  2.49975488640E+02  0.00000000000E+00  0.0000E+00  9.0
      -11   -1    0    0    0    0  0.00000000000E+00  0.00000000000E+00 -2.50000000000E+02  2.50000000000E+02  0.00000000000E+00  0.0000E+00  9.0
       24    2    1    2    0    0 -1.92446663173E+01  4.90291451497E+01 -2.30638790079E+02  2.50468244652E+02  8.22549441344E+01  2.1571E-13  9.0
      -24    2    1    2    0    0  1.92446663173E+01 -4.90291451497E+01  2.30614278719E+02  2.49507243996E+02  7.93517800786E+01  1.8608E-13  9.0
       -3    1    3    3    0  500  1.56446449370E+01  2.74871673554E+01 -2.37436501900E+01  3.95482010814E+01  0.00000000000E+00  0.0000E+00  9.0
        4    1    3    3  500    0 -3.48893112543E+01  2.15419777943E+01 -2.06895139889E+02  2.10920043571E+02  5.87386917370E-01  0.0000E+00  9.0
        3    1    4    4  504    0 -3.03003021848E+01 -2.59373476249E+01  1.12358945454E+02  1.19228297555E+02  0.00000000000E+00  0.0000E+00  9.0
       -4    1    4    4    0  504  4.95449685021E+01 -2.30917975248E+01  1.18255333264E+02  1.30278946441E+02  5.87386917370E-01  0.0000E+00  9.0
</event>
<event>
 8    1   5.1859766E+00   4.7790000E+02  -1.0000000E+00   9.3990000E-02
       11   -1    0    0    0    0  0.00000000000E+00  0.00000000000E+00  2.46131147980E+02  2.46131147980E+02  0.00000000000E+00  0.0000E+00  9.0
      -11   -1    0    0    0    0  0.00000000000E+00  0.00000000000E+00 -2.31934379460E+02  2.31934379460E+02  0.00000000000E+00  0.0000E+00  9.0
       24    2    1    2    0    0 -1.33781521605E+02 -7.28814958554E+01 -1.58434207296E+02  2.33893295543E+02  7.99716680940E+01  1.3596E-13  9.0
      -24    2    1    2    0    0  1.33781521605E+02  7.28814958554E+01  1.72630975806E+02  2.44172231889E+02  8.12983213684E+01  6.8216E-14  9.0
       -1    1    3    3    0  500 -1.27523507826E+02 -5.76257820446E+01 -1.64816733606E+02  2.16211774612E+02  0.00000000000E+00  0.0000E+00  9.0
        2    1    3    3  500    0 -6.25801377826E+00 -1.52557138108E+01  6.38252631018E+00  1.76815209308E+01  0.00000000000E+00  0.0000E+00  9.0
        1    1    4    4  504    0  8.40059186545E+01  2.66338148314E-01  9.47821857073E+01  1.26651995770E+02  0.00000000000E+00  0.0000E+00  9.0
       -2    1    4    4    0  504  4.97756029501E+01  7.26151577071E+01  7.78487900982E+01  1.17520236120E+02  0.00000000000E+00  0.0000E+00  9.0
</event>
<event>
 8    1   5.1859766E+00   2.6070000E+02  -1.0000000E+00   1.0130000E-01
       11   -1    0    0    0    0  0.00000000000E+00  0.00000000000E+00  2.45710893540E+02  2.45710893540E+02  0.00000000000E+00  0.0000E+00  9.0
      -11   -1    0    0    0    0  0.00000000000E+00  0.00000000000E+00 -6.91407592400E+01  6.91407592400E+01  0.00000000000E+00  0.0000E+00  9.0
       24    2    1    2    0    0 -8.12032310762E+01 -4.02630407322E+01  2.15866971004E+01  1.19126886158E+02  7.42304002942E+01  6.4397E-14  9.0
      -24    2    1    2    0    0  8.12032310762E+01  4.02630407322E+01  1.54983437196E+02  1.95724766618E+02  7.79310033081E+01  4.0261E-14  9.0
       -3    1    3    3    0  500  3.14764562183E+00  6.71538238745E+00 -1.43097356688E+01  1.61174616017E+01  0.00000000000E+00  0.0000E+00  9.0
        4    1    3    3  500    0 -8.43508766980E+01 -4.69784231196E+01  3.58964327692E+01  1.03009424557E+02  5.87386917370E-01  0.0000E+00  9.0
        1    1    4    4  504    0  7.49315630199E+01  3.36102885338E+00  6.88737872555E+01  1.01831400965E+02  0.00000000000E+00  0.0000E+00  9.0
       -2    1    4    4    0  504  6.27166805625E+00  3.69020118788E+01  8.61096499401E+01  9.38933656534E+01  0.00000000000E+00  0.0000E+00  9.0
</event>
<event>
 8    1   5.1859766E+00   3.4950000E+02  -1.0000000E+00   9.7630000E-02
       11   -1    0    0    0    0  0.00000000000E+00  0.00000000000E+00  1.38839031680E+02  1.38839031680E+02  0.00000000000E+00  0.0000E+00  9.0
      -11   -1    0    0    0    0  0.00000000000E+00  0.00000000000E+00 -2.19912146970E+02  2.19912146970E+02  0.00000000000E+00  0.0000E+00  9.0
       24    2    1    2    0    0  9.10839788506E+00 -1.15529377660E+02 -1.47081252418E+02  2.03146868699E+02  7.87766173082E+01  8.7482E-14  9.0
      -24    2    1    2    0    0 -9.10839788506E+00  1.15529377660E+02  6.60081371360E+01  1.55604309945E+02  8.01600092989E+01  1.3573E-13  9.0
       -1    1    3    3    0  500  1.01231932280E+01 -2.40169680892E+01  4.13878132059E+00  2.63898334240E+01  0.00000000000E+00  0.0000E+00  9.0
        2    1    3    3  500    0 -1.01479534294E+00 -9.15124095713E+01 -1.51220033739E+02  1.76757035275E+02  0.00000000000E+00  0.0000E+00  9.0
        3    1    4    4  504    0 -1.50748812062E+00  8.68717900309E+01  8.40557858815E+01  1.20889848886E+02  0.00000000000E+00  0.0000E+00  9.0
       -4    1    4    4    0  504 -7.60090976443E+00  2.86575876296E+01 -1.80476487455E+01  3.47144610591E+01  5.87386917370E-01  0.0000E+00  9.0
</event>
<event>
 8    1   5.1859766E+00   4.9970000E+02  -1.0000000E+00   9.3500000E-02
       11   -1    0    0    0    0  0.00000000000E+00  0.00000000000E+00  2.49732609990E+02  2.49732609990E+02  0.00000000000E+00  0.0000E+00  9.0
      -11   -1    0    0    0    0  0.00000000000E+00  0.00000000000E+00 -2.49999975300E+02  2.49999975300E+02  0.00000000000E+00  0.0000E+00  9.0
       24    2    1    2    0    0  1.06428453279E+02  1.06927591689E+02 -1.84089850826E+02  2.51150939896E+02  8.01697941972E+01  5.9819E-15  9.0
      -24    2    1    2    0    0 -1.06428453279E+02 -1.06927591689E+02  1.83822485516E+02  2.48581645399E+02  7.23989137797E+01  1.5901E-13  9.0
       -3    1    3    3    0  500  1.30594363588E+01  3.27230336149E+00  6.50645511621E+00  1.49529530688E+01  0.00000000000E+00  0.0000E+00  9.0
        4    1    3    3  500    0  9.33690169198E+01  1.03655288328E+02 -1.90596305942E+02  2.36197986827E+02  5.87386917370E-01  0.0000E+00  9.0
        1    1    4    4  504    0 -8.57963853536E+00  3.35583811880E+00 -3.79753506039E+00  9.96459328884E+00  0.00000000000E+00  0.0000E+00  9.0
       -2    1    4    4    0  504 -9.78488147432E+01 -1.10283429808E+02  1.87620020576E+02  2.38617052111E+02  0.00000000000E+00  0.0000E+00  9.0
</event>
<event>
 8    1   5.1859766E+00   4.8380000E+02  -1.0000000E+00   9.3860000E-02
       11   -1    0    0    0    0  0.00000000000E+00  0.00000000000E+00  2.34091285090E+02  2.34091285090E+02  0.00000000000E+00  0.0000E+00  9.0
      -11   -1    0    0    0    0  0.00000000000E+00  0.00000000000E+00 -2.49999265800E+02  2.49999265800E+02  0.00000000000E+00  0.0000E+00  9.0
       24    2    1    2    0    0  1.25212213642E+02 -1.03663925317E+02 -1.67876178828E+02  2.47120888115E+02  8.03866535407E+01  1.1042E-13  9.0
      -24    2    1    2    0    0 -1.25212213642E+02  1.03663925317E+02  1.51968198118E+02  2.36969662761E+02  8.14615244922E+01  2.8321E-14  9.0
       -3    1    3    3    0  500  1.28094981652E+02 -9.77905214464E+01 -1.74679240781E+02  2.37663938302E+02  0.00000000000E+00  0.0000E+00  9.0
        4    1    3    3  500    0 -2.88276801062E+00 -5.87340387068E+00  6.80306195318E+00  9.45694981274E+00  5.87386917370E-01  0.0000E+00  9.0
        1    1    4    4  504    0 -3.57253876713E+01 -9.11692026594E+00  4.14194926127E+01  5.54526458133E+01  0.00000000000E+00  0.0000E+00  9.0
       -2    1    4    4    0  504 -8.94868259704E+01  1.12780845583E+02  1.10548705506E+02  1.81517016948E+02  0.00000000000E+00  0.0000E+00  9.0
</event>
<event>
 8    1   5.1859766E+00   4.8910000E+02  -1.0000000E+00   9.3730000E-02
       11   -1    0    0    0    0  0.00000000000E+00  0.00000000000E+00  2.39246146570E+02  2.39246146570E+02  0.00000000000E+00  0.0000E+00  9.0
      -11   -1    0    0    0    0  0.00000000000E+00  0.00000000000E+00 -2.49999999860E+02  2.49999999860E+02  0.00000000000E+00  0.0000E+00  9.0
       24    2    1    2    0    0  7.54272889181E+01  5.84889138543E+00 -2.23646040585E+02  2.49003747020E+02  7.91317200439E+01  9.4081E-14  9.0
      -24    2    1    2    0    0 -7.54272889181E+01 -5.84889138543E+00  2.12892187305E+02  2.40242399405E+02  8.16690982725E+01  2.0770E-14  9.0
       -3    1    3    3    0  500  7.33147505383E+00  1.17683880460E+01  1.27642051009E+00  1.39238907273E+01  0.00000000000E+00  0.0000E+00  9.0
        4    1    3    3  500    0  6.80958138642E+01 -5.91949666058E+00 -2.24922461095E+02  2.35079856293E+02  5.87386917370E-01  0.0000E+00  9.0
        3    1    4    4  504    0  7.78417530814E+00  5.52127817855E+00  9.50830910905E+01  9.55608293668E+01  0.00000000000E+00  0.0000E+00  9.0
       -4    1    4    4    0  504 -8.32114642262E+01 -1.13701695640E+01  1.17809096214E+02  1.44681570038E+02  5.87386917370E-01  0.0000E+00  9.0
</event>
<event>
 8    1   5.1859766E+00   3.2340000E+02  -1.0000000E+00   9.8580000E-02
       11   -1    0    0    0    0  0.00000000000E+00  0.00000000000E+00  2.10370142360E+02  2.10370142360E+02  0.00000000000E+00  0.0000E+00  9.0
      -11   -1    0    0    0    0  0.00000000000E+00  0.00000000000E+00 -1.24265151900E+02  1.24265151900E+02  0.00000000000E+00  0.0000E+00  9.0
       24    2    1    2    0    0  2.75801659436E+01 -2.96576271218E+01 -9.60346828430E+01  1.31452286906E+02  8.01049500598E+01  1.5554E-13  9.0
      -24    2    1    2    0    0 -2.75801659436E+01  2.96576271218E+01  1.82139673297E+02  2.03183007350E+02  8.04253286415E+01  1.1103E-13  9.0
      -13    1    3    3    0    0  4.16828185616E+01  8.37736201526E+00 -7.38569643366E+01  8.52203022236E+01  1.05700000000E-01  0.0000E+00  9.0
       14    1    3    3    0    0 -1.41026526180E+01 -3.80349891371E+01 -2.21777185064E+01  4.62319846824E+01  0.00000000000E+00  0.0000E+00  9.0
        3    1    4    4  500    0 -2.61736558299E+01  2.37762507457E+01  1.94053754523E+01  4.03353313544E+01  0.00000000000E+00  0.0000E+00  9.0
       -4    1    4    4    0  500 -1.40651011370E+00  5.88137637618E+00  1.62734297845E+02  1.62847675996E+02  5.87386917370E-01  0.0000E+00  9.0
</event>
<event>
 8    1   5.1859766E+00   5.0000000E+02  -1.0000000E+00   9.3490000E-02
       11   -1    0    0    0    0  0.00000000000E+00  0.00000000000E+00  2.50000000000E+02  2.50000000000E+02  0.00000000000E+00  0.0000E+00  9.0
      -11   -1    0    0    0    0  0.00000000000E+00  0.00000000000E+00 -2.49999733800E+02  2.49999733800E+02  0.00000000000E+00  0.0000E+00  9.0
       24    2    1    2    0    0  7.40649434752E+01 -1.19914378712E+02 -1.89747972860E+02  2.49745720303E+02  8.06446373359E+01  1.3615E-13  9.0
      -24    2    1    2    0    0 -7.40649434752E+01  1.19914378712E+02  1.89748239060E+02  2.50254013495E+02  8.22046408067E+01  8.2076E-14  9.0
      -13    1    3    3    0    0 -5.19810059032E+00 -5.88845291436E+01 -9.54388543782E+01  1.12263057680E+02  1.05700000000E-01  0.0000E+00  9.0
       14    1    3    3    0    0  7.92630440655E+01 -6.10298495681E+01 -9.43091184822E+01  1.37482662622E+02  0.00000000000E+00  0.0000E+00  9.0
        3    1    4    4  500    0 -1.32281140271E+01 -1.16714404904E+01  1.46484329765E+01  2.29299392171E+01  0.00000000000E+00  0.0000E+00  9.0
       -4    1    4    4    0  500 -6.08368294481E+01  1.31585819202E+02  1.75099806084E+02  2.27324074278E+02  5.87386917370E-01  0.0000E+00  9.0
</event>
<event>
 8    1   5.1859766E+00   4.8710000E+02  -1.0000000E+00   9.3780000E-02
       11   -1    0    0    0    0  0.00000000000E+00  0.00000000000E+00  2.40484843330E+02  2.40484843330E+02  0.00000000000E+00  0.0000E+00  9.0
      -11   -1    0    0    0    0  0.00000000000E+00  0.00000000000E+00 -2.46691282590E+02  2.46691282590E+02  0.00000000000E+00  0.0000E+00  9.0
       24    2    1    2    0    0 -1.09919676187E+01 -3.02349249064E+01 -2.28873241842E+02  2.47782971760E+02  8.93222605327E+01  6.4156E-15  9.0
      -24    2    1    2    0    0  1.09919676187E+01  3.02349249064E+01  2.22666802592E+02  2.39393154160E+02  8.18144439926E+01  2.6601E-13  9.0
       -1    1    3    3    0  500 -3.82476229176E+01 -4.52941754938E+01 -1.82809182490E+02  1.92181269106E+02  0.00000000000E+00  0.0000E+00  9.0
        2    1    3    3  500    0  2.72556552989E+01  1.50592505874E+01 -4.60640593515E+01  5.56017026535E+01  0.00000000000E+00  0.0000E+00  9.0
        3    1    4    4  504    0  3.95033385720E+01 -9.13847786754E-01  1.52153317615E+02  1.57200448274E+02  0.00000000000E+00  0.0000E+00  9.0
       -4    1    4    4    0  504 -2.85113709533E+01  3.11487726931E+01  7.05134849765E+01  8.21927058859E+01  5.87386917370E-01  0.0000E+00  9.0
</event>
<event>
 8    1   5.1859766E+00   4.9990000E+02  -1.0000000E+00   9.3490000E-02
       11   -1    0    0    0    0  0.00000000000E+00  0.00000000000E+00  2.49999094840E+02  2.49999094840E+02  0.00000000000E+00  0.0000E+00  9.0
      -11   -1    0    0    0    0  0.00000000000E+00  0.00000000000E+00 -2.49879180420E+02  2.49879180420E+02  0.00000000000E+00  0.0000E+00  9.0
       24    2    1    2    0    0 -2.59082455056E+01 -1.01700057694E+01 -2.35788277317E+02  2.50519100157E+02  7.99314807868E+01  2.4321E-14  9.0
      -24    2    1    2    0    0  2.59082455056E+01  1.01700057694E+01  2.35908191737E+02  2.49359175089E+02  7.58462726161E+01  3.1649E-14  9.0
       -1    1    3    3    0  500  1.73925791455E+01 -5.00108085017E+00 -1.73736343831E+02  1.74676357263E+02  0.00000000000E+00  0.0000E+00  9.0
        2    1    3    3  500    0 -4.33008246511E+01 -5.16892491920E+00 -6.20519334865E+01  7.58427428941E+01  0.00000000000E+00  0.0000E+00  9.0
       13    1    4    4    0    0  5.07581382291E+01  1.92152306267E+01  1.53560505522E+02  1.62869437628E+02  1.05700000000E-01  0.0000E+00  9.0
      -14    1    4    4    0    0 -2.48498927235E+01 -9.04522485738E+00  8.23476862155E+01  8.64897374614E+01  0.00000000000E+00  0.0000E+00  9.0
</event>
<event>
 8    1   5.1859766E+00   4.5620000E+02  -1.0000000E+00   9.4520000E-02
       11   -1    0    0    0    0  0.00000000000E+00  0.00000000000E+00  2.49999991770E+02  2.49999991770E+02  0.00000000000E+00  0.0000E+00  9.0
      -11   -1    0    0    0    0  0.00000000000E+00  0.00000000000E+00 -2.08118070440E+02  2.08118070440E+02  0.00000000000E+00  0.0000E+00  9.0
       24    2    1    2    0    0 -1.03929708068E+02 -1.24818488076E+02 -1.16484971590E+02  2.15298985998E+02  8.00241562336E+01  1.4551E-13  9.0
      -24    2    1    2    0    0  1.03929708068E+02  1.24818488076E+02  1.58366892910E+02  2.42819076203E+02  8.66024931153E+01  4.5810E-14  9.0
       -3    1    3    3    0  500 -3.63895465059E+01 -7.76784097573E+01 -9.91899661462E+01  1.31136508347E+02  0.00000000000E+00  0.0000E+00  9.0
        4    1    3    3  500    0 -6.75401615618E+01 -4.71400783189E+01 -1.72950054434E+01  8.41624776512E+01  5.87386917370E-01  0.0000E+00  9.0
        1    1    4    4  504    0 -6.52558803377E+00 -5.73388327384E+00  2.34148232519E+01  2.49742800598E+01  0.00000000000E+00  0.0000E+00  9.0
       -2    1    4    4    0  504  1.10455296102E+02  1.30552371350E+02  1.34952069658E+02  2.17844796144E+02  0.00000000000E+00  0.0000E+00  9.0
</event>
<event>
 8    1   5.1859766E+00   4.8640000E+02  -1.0000000E+00   9.3800000E-02
       11   -1    0    0    0    0  0.00000000000E+00  0.00000000000E+00  2.37930792780E+02  2.37930792780E+02  0.00000000000E+00  0.0000E+00  9.0
      -11   -1    0    0    0    0  0.00000000000E+00  0.00000000000E+00 -2.48589930720E+02  2.48589930720E+02  0.00000000000E+00  0.0000E+00  9.0
       24    2    1    2    0    0  2.96572584778E+01  4.33237520939E+01 -2.27944659176E+02  2.49426179274E+02  8.65918632715E+01  2.1679E-13  9.0
      -24    2    1    2    0    0 -2.96572584778E+01 -4.33237520939E+01  2.17285521246E+02  2.37094544224E+02  7.90210394889E+01  7.6498E-14  9.0
       -3    1    3    3    0  500  5.45618048343E+01  3.57592896135E+01 -1.03925424441E+02  1.22703753755E+02  0.00000000000E+00  0.0000E+00  9.0
        4    1    3    3  500    0 -2.49045463565E+01  7.56446248031E+00 -1.24019234735E+02  1.26722425519E+02  5.87386917370E-01  0.0000E+00  9.0
        3    1    4    4  504    0 -4.32785260935E+01 -7.28967449672E+00  5.53472274509E+01  7.06362920997E+01  0.00000000000E+00  0.0000E+00  9.0
       -4    1    4    4    0  504  1.36212676157E+01 -3.60340775971E+01  1.61938293795E+02  1.66458252124E+02  5.87386917370E-01  0.0000E+00  9.0
</event>
<event>
 8    1   5.1859766E+00   2.3300000E+02  -1.0000000E+00   1.0280000E-01
       11   -1    0    0    0    0  0.00000000000E+00  0.00000000000E+00  5.59864526140E+01  5.59864526140E+01  0.00000000000E+00  0.0000E+00  9.0
      -11   -1    0    0    0    0  0.00000000000E+00  0.00000000000E+00 -2.42330828380E+02  2.42330828380E+02  0.00000000000E+00  0.0000E+00  9.0
       24    2    1    2    0    0 -5.22390933798E+01 -2.61956698256E+01 -1.69884489094E+02  1.97429521070E+02  8.18690427470E+01  4.8891E-14  9.0
      -24    2    1    2    0    0  5.22390933798E+01  2.61956698256E+01 -1.64598866701E+01  1.00887759923E+02  8.05746625079E+01  8.4860E-15  9.0
       -3    1    3    3    0  500 -7.44181450600E+01 -2.23459401360E+01 -1.38421336272E+02  1.58738362377E+02  0.00000000000E+00  0.0000E+00  9.0
        4    1    3    3  500    0  2.21790516801E+01 -3.84972968961E+00 -3.14631528222E+01  3.86911586931E+01  5.87386917370E-01  0.0000E+00  9.0
        3    1    4    4  504    0  3.81710027796E+00  1.88803261854E+01 -4.15955519851E+01  4.58391417497E+01  0.00000000000E+00  0.0000E+00  9.0
       -4    1    4    4    0  504  4.84219931019E+01  7.31534364023E+00  2.51356653150E+01  5.50486181730E+01  5.87386917370E-01  0.0000E+00  9.0
</event>
<event>
 8    1   5.1859766E+00   3.4070000E+02  -1.0000000E+00   9.7940000E-02
       11   -1    0    0    0    0  0.00000000000E+00  0.00000000000E+00  2.42761465150E+02  2.42761465150E+02  0.00000000000E+00  0.0000E+00  9.0
      -11   -1    0    0    0    0  0.00000000000E+00  0.00000000000E+00 -1.19527912420E+02  1.19527912420E+02  0.00000000000E+00  0.0000E+00  9.0
       24    2    1    2    0    0  6.77580787173E+01 -4.86429552968E+01 -7.11012921851E+01  1.36035505218E+02  8.05789711897E+01  1.9454E-14  9.0
      -24    2    1    2    0    0 -6.77580787173E+01  4.86429552968E+01  1.94334844917E+02  2.26253872345E+02  8.04206967821E+01  1.7155E-13  9.0
       -1    1    3    3    0  500 -8.46867632811E+00  1.45825505539E+01 -1.21247210414E+01  2.07696441890E+01  0.00000000000E+00  0.0000E+00  9.0
        2    1    3    3  500    0  7.62267550454E+01 -6.32255058507E+01 -5.89765711437E+01  1.15265861029E+02  0.00000000000E+00  0.0000E+00  9.0
        3    1    4    4  504    0 -5.05468676954E+01  1.86369701789E+00  1.54114448287E+02  1.62202719987E+02  0.00000000000E+00  0.0000E+00  9.0
       -4    1    4    4    0  504 -1.72112110218E+01  4.67792582789E+01  4.02203966300E+01  6.40511523583E+01  5.87386917370E-01  0.0000E+00  9.0
</event>
<event>
 8    1   5.1859766E+00   4.8160000E+02  -1.0000000E+00   9.3910000E-02
       11   -1    0    0    0    0  0.00000000000E+00  0.00000000000E+00  2.49889606980E+02  2.49889606980E+02  0.00000000000E+00  0.0000E+00  9.0
      -11   -1    0    0    0    0  0.00000000000E+00  0.00000000000E+00 -2.32023568120E+02  2.32023568120E+02  0.00000000000E+00  0.0000E+00  9.0
       24    2    1    2    0    0  1.28722451299E+01 -1.82879738532E+01 -2.15914577534E+02  2.33743322304E+02  8.66988537856E+01  7.2787E-14  9.0
      -24    2    1    2    0    0 -1.28722451299E+01  1.82879738532E+01  2.33780616394E+02  2.48169852800E+02  8.02169218742E+01  2.2322E-14  9.0
      -13    1    3    3    0    0 -4.90703821002E+00 -4.62554658966E+01 -6.95318578952E+01  8.36560672286E+01  1.05700000000E-01  0.0000E+00  9.0
       14    1    3    3    0    0  1.77792833399E+01  2.79674920433E+01 -1.46382719638E+02  1.50087255075E+02  0.00000000000E+00  0.0000E+00  9.0
        3    1    4    4  500    0 -3.16531918264E+01  3.96749050800E+01  1.83493094553E+02  1.90383135794E+02  0.00000000000E+00  0.0000E+00  9.0
       -4    1    4    4    0  500  1.87809466965E+01 -2.13869312267E+01  5.02875218403E+01  5.77867170061E+01  5.87386917370E-01  0.0000E+00  9.0
</event>
<event>
 8    1   5.1859766E+00   4.9450000E+02  -1.0000000E+00   9.3610000E-02
       11   -1    0    0    0    0  0.00000000000E+00  0.00000000000E+00  2.45301300110E+02  2.45301300110E+02  0.00000000000E+00  0.0000E+00  9.0
      -11   -1    0    0    0    0  0.00000000000E+00  0.00000000000E+00 -2.49179183400E+02  2.49179183400E+02  0.00000000000E+00  0.0000E+00  9.0
       24    2    1    2    0    0  5.78981618906E+01  1.70403343249E+01 -2.27312058047E+02  2.48579390348E+02  8.04883310034E+01  8.1742E-15  9.0
      -24    2    1    2    0    0 -5.78981618906E+01 -1.70403343249E+01  2.23434174767E+02  2.45901093156E+02  8.30779574677E+01  5.3408E-15  9.0
       -1    1    3    3    0  500  6.00004381938E+01 -1.08845112420E+01 -2.01389576283E+02  2.10419311385E+02  0.00000000000E+00  0.0000E+00  9.0
        2    1    3    3  500    0 -2.10227630322E+00  2.79248455669E+01 -2.59224817641E+01  3.81600789622E+01  0.00000000000E+00  0.0000E+00  9.0
        3    1    4    4  504    0 -1.00231935352E+01  2.92757058084E+01  1.10824973288E+02  1.15063921641E+02  0.00000000000E+00  0.0000E+00  9.0
       -4    1    4    4    0  504 -4.78749683554E+01 -4.63160401333E+01  1.12609201480E+02  1.30837171515E+02  5.87386917370E-01  0.0000E+00  9.0
</event>
<event>
 8    1   5.1859766E+00   4.9930000E+02  -1.0000000E+00   9.3510000E-02
       11   -1    0    0    0    0  0.00000000000E+00  0.00000000000E+00  2.49999994990E+02  2.49999994990E+02  0.00000000000E+00  0.0000E+00  9.0
      -11   -1    0    0    0    0  0.00000000000E+00  0.00000000000E+00 -2.49277679100E+02  2.49277679100E+02  0.00000000000E+00  0.0000E+00  9.0
       24    2    1    2    0    0  1.21430100225E+01  1.51954360330E+02 -1.80105824682E+02  2.49828044837E+02  8.20875361232E+01  2.5229E-13  9.0
      -24    2    1    2    0    0 -1.21430100225E+01 -1.51954360330E+02  1.80828140572E+02  2.49449629251E+02  7.93014551898E+01  4.7252E-14  9.0
      -13    1    3    3    0    0 -2.87111507297E+01  9.89122917144E+01 -1.31796101159E+02  1.67266837962E+02  1.05700000000E-01  0.0000E+00  9.0
       14    1    3    3    0    0  4.08541607522E+01  5.30420686160E+01 -4.83097235224E+01  8.25612068749E+01  0.00000000000E+00  0.0000E+00  9.0
        3    1    4    4  500    0 -2.99453933703E+00 -5.72875305719E+01  1.66858408589E+01  5.97431645466E+01  0.00000000000E+00  0.0000E+00  9.0
       -4    1    4    4    0  500 -9.14847068547E+00 -9.46668297585E+01  1.64142299713E+02  1.89706464705E+02  5.87386917370E-01  0.0000E+00  9.0
</event>
<event>
 8    1   5.1859766E+00   4.9980000E+02  -1.0000000E+00   9.3500000E-02
       11   -1    0    0    0    0  0.00000000000E+00  0.00000000000E+00  2.49999999990E+02  2.49999999990E+02  0.00000000000E+00  0.0000E+00  9.0
      -11   -1    0    0    0    0  0.00000000000E+00  0.00000000000E+00 -2.49792688930E+02  2.49792688930E+02  0.00000000000E+00  0.0000E+00  9.0
       24    2    1    2    0    0 -1.99615543990E+02  5.35523187809E+01 -1.14567505807E+02  2.49479446851E+02  8.00004047800E+01  2.1196E-13  9.0
      -24    2    1    2    0    0  1.99615543990E+02 -5.35523187809E+01  1.14774816857E+02  2.50313242072E+02  8.22754174879E+01  2.0517E-14  9.0
      -13    1    3    3    0    0 -2.36461424658E+01  2.53775495750E+01  4.75411784524E+00  3.50110394722E+01  1.05700000000E-01  0.0000E+00  9.0
       14    1    3    3    0    0 -1.75969401524E+02  2.81747692058E+01 -1.19321623652E+02  2.14468407378E+02  0.00000000000E+00  0.0000E+00  9.0
        3    1    4    4  500    0  6.81083211835E+01 -5.24313645141E+01  2.01124879998E+01  8.82740254707E+01  0.00000000000E+00  0.0000E+00  9.0
       -4    1    4    4    0  500  1.31507222806E+02 -1.12095426673E+00  9.46623288567E+01  1.62039216601E+02  5.87386917370E-01  0.0000E+00  9.0
</event>
<event>
 8    1   5.1859766E+00   4.6210000E+02  -1.0000000E+00   9.4370000E-02
       11   -1    0    0    0    0  0.00000000000E+00  0.00000000000E+00  2.50000000000E+02  2.50000000000E+02  0.00000000000E+00  0.0000E+00  9.0
      -11   -1    0    0    0    0  0.00000000000E+00  0.00000000000E+00 -2.13512039630E+02  2.13512039630E+02  0.00000000000E+00  0.0000E+00  9.0
       24    2    1    2    0    0 -9.43952693631E+00  2.40997541851E+01 -1.94858906490E+02  2.16498453437E+02  9.07286287873E+01  1.9540E-13  9.0
      -24    2    1    2    0    0  9.43952693631E+00 -2.40997541851E+01  2.31346866860E+02  2.47013586198E+02  8.26101455028E+01  1.5571E-13  9.0
       -1    1    3    3    0  500 -1.68752948854E+01  4.31072480682E+01 -1.89945419052E+02  1.95505172905E+02  0.00000000000E+00  0.0000E+00  9.0
        2    1    3    3  500    0  7.43576794908E+00 -1.90074938831E+01 -4.91348743728E+00  2.09932805322E+01  0.00000000000E+00  0.0000E+00  9.0
        1    1    4    4  504    0 -1.81641939795E+01 -1.02759635869E+01  9.32903377727E+00  2.28596640785E+01  0.00000000000E+00  0.0000E+00  9.0
       -2    1    4    4    0  504  2.76037209158E+01 -1.38237905982E+01  2.22017833082E+02  2.24153922119E+02  0.00000000000E+00  0.0000E+00  9.0
</event>
<event>
 8    1   5.1859766E+00   4.8970000E+02  -1.0000000E+00   9.3720000E-02
       11   -1    0    0    0    0  0.00000000000E+00  0.00000000000E+00  2.49880321740E+02  2.49880321740E+02  0.00000000000E+00  0.0000E+00  9.0
      -11   -1    0    0    0    0  0.00000000000E+00  0.00000000000E+00 -2.39963185260E+02  2.39963185260E+02  0.00000000000E+00  0.0000E+00  9.0
       24    2    1    2    0    0 -2.95782532865E+00  3.44027963310E+01 -2.24017851051E+02  2.40203031923E+02  7.95059609681E+01  9.4033E-14  9.0
      -24    2    1    2    0    0  2.95782532865E+00 -3.44027963310E+01  2.33934987541E+02  2.49640475072E+02  8.00155439419E+01  7.6945E-14  9.0
       -3    1    3    3    0  500  3.26822715416E+01  3.52686317487E+01 -9.68209163224E+01  1.08103178011E+02  0.00000000000E+00  0.0000E+00  9.0
        4    1    3    3  500    0 -3.56400968702E+01 -8.65835417647E-01 -1.27196934729E+02  1.32099853912E+02  5.87386917370E-01  0.0000E+00  9.0
        3    1    4    4  504    0  6.03118517188E+00 -2.93882142270E+01  2.39589571107E+02  2.41460565959E+02  0.00000000000E+00  0.0000E+00  9.0
       -4    1    4    4    0  504 -3.07335984323E+00 -5.01458210397E+00 -5.65458356591E+00  8.17990911307E+00  5.87386917370E-01  0.0000E+00  9.0
</event>
<event>
 8    1   5.1859766E+00   4.8390000E+02  -1.0000000E+00   9.3850000E-02
       11   -1    0    0    0    0  0.00000000000E+00  0.00000000000E+00  2.34162368810E+02  2.34162368810E+02  0.00000000000E+00  0.0000E+00  9.0
      -11   -1    0    0    0    0  0.00000000000E+00  0.00000000000E+00 -2.49968566410E+02  2.49968566410E+02  0.00000000000E+00  0.0000E+00  9.0
       24    2    1    2    0    0 -7.52027019522E+01  2.24804436284E+00 -2.24080184460E+02  2.49401382121E+02  7.95526256735E+01  1.5160E-13  9.0
      -24    2    1    2    0    0  7.52027019522E+01 -2.24804436284E+00  2.08273986870E+02  2.34729553101E+02  7.78422083937E+01  4.5357E-14  9.0
       -1    1    3    3    0  500 -3.12922991673E+01 -1.98911532854E+01 -1.78633416582E+02  1.82441123341E+02  0.00000000000E+00  0.0000E+00  9.0
        2    1    3    3  500    0 -4.39104027849E+01  2.21391976483E+01 -4.54467678784E+01  6.69602587796E+01  0.00000000000E+00  0.0000E+00  9.0
        3    1    4    4  504    0  1.34227275009E+01  2.16069234185E+01  1.28752873831E+02  1.31241499812E+02  0.00000000000E+00  0.0000E+00  9.0
       -4    1    4    4    0  504  6.17799744513E+01 -2.38549677813E+01  7.95211130392E+01  1.03488053288E+02  5.87386917370E-01  0.0000E+00  9.0
</event>
<event>
 8    1   5.1859766E+00   4.9570000E+02  -1.0000000E+00   9.3590000E-02
       11   -1    0    0    0    0  0.00000000000E+00  0.00000000000E+00  2.49880294750E+02  2.49880294750E+02  0.00000000000E+00  0.0000E+00  9.0
      -11   -1    0    0    0    0  0.00000000000E+00  0.00000000000E+00 -2.45880046630E+02  2.45880046630E+02  0.00000000000E+00  0.0000E+00  9.0
       24    2    1    2    0    0  1.06885973467E+02  4.20292114857E+01 -2.02127662158E+02  2.45805460036E+02  7.98352455511E+01  1.4390E-13  9.0
      -24    2    1    2    0    0 -1.06885973467E+02 -4.20292114857E+01  2.06127910278E+02  2.49954881338E+02  8.24479312495E+01  5.5266E-17  9.0
       -3    1    3    3    0  500  6.30490726320E+01  3.55397201023E+01 -1.84360429520E+02  1.98058136004E+02  0.00000000000E+00  0.0000E+00  9.0
        4    1    3    3  500    0  4.38369008353E+01  6.48949138340E+00 -1.77672326382E+01  4.77473240325E+01  5.87386917370E-01  0.0000E+00  9.0
        3    1    4    4  504    0 -7.21478040070E+01 -4.16062316361E+01  6.79861436448E+01  1.07510463964E+02  0.00000000000E+00  0.0000E+00  9.0
       -4    1    4    4    0  504 -3.47381694603E+01 -4.22979849659E-01  1.38141766633E+02  1.42444417375E+02  5.87386917370E-01  0.0000E+00  9.0
</event>
<event>
 8    1   5.1859766E+00   3.8550000E+02  -1.0000000E+00   9.6460000E-02
       11   -1    0    0    0    0  0.00000000000E+00  0.00000000000E+00  1.52953425990E+02  1.52953425990E+02  0.00000000000E+00  0.0000E+00  9.0
      -11   -1    0    0    0    0  0.00000000000E+00  0.00000000000E+00 -2.42962657660E+02  2.42962657660E+02  0.00000000000E+00  0.0000E+00  9.0
       24    2    1    2    0    0 -6.65671582547E+01 -5.14294031565E+01 -2.03022907956E+02  2.34278490744E+02  8.11907630407E+01  2.0737E-13  9.0
      -24    2    1    2    0    0  6.65671582547E+01  5.14294031565E+01  1.13013676286E+02  1.61637592909E+02  7.92366729895E+01  5.4407E-14  9.0
       -1    1    3    3    0  500 -8.53605763431E+01 -4.74766333150E+01 -1.71621638471E+02  1.97470112919E+02  0.00000000000E+00  0.0000E+00  9.0
        2    1    3    3  500    0  1.87934180884E+01 -3.95276984157E+00 -3.14012694845E+01  3.68083778249E+01  0.00000000000E+00  0.0000E+00  9.0
        3    1    4    4  504    0  6.50511249294E+01  4.29940338621E+01  1.24737066422E+02  1.47103608188E+02  0.00000000000E+00  0.0000E+00  9.0
       -4    1    4    4    0  504  1.51603332532E+00  8.43536929447E+00 -1.17233901363E+01  1.45339847205E+01  5.87386917370E-01  0.0000E+00  9.0
</event>
<event>
 8    1   5.1859766E+00   4.9140000E+02  -1.0000000E+00   9.3680000E-02
       11   -1    0    0    0    0  0.00000000000E+00  0.00000000000E+00  2.41492156730E+02  2.41492156730E+02  0.00000000000E+00  0.0000E+00  9.0
      -11   -1    0    0    0    0  0.00000000000E+00  0.00000000000E+00 -2.49999927280E+02  2.49999927280E+02  0.00000000000E+00  0.0000E+00  9.0
       24    2    1    2    0    0 -2.13780294332E+01 -1.28815061697E+02 -1.96966513345E+02  2.48880824416E+02  7.80737927874E+01  5.1159E-13  9.0
      -24    2    1    2    0    0  2.13780294332E+01  1.28815061697E+02  1.88458742795E+02  2.42611259586E+02  7.93295990125E+01  6.0194E-14  9.0
       -1    1    3    3    0  500 -4.76580562185E+01 -5.03659731461E+01 -9.34066350254E+01  1.16330653915E+02  0.00000000000E+00  0.0000E+00  9.0
        2    1    3    3  500    0  2.62800267854E+01 -7.84490885505E+01 -1.03559878320E+02  1.32550170501E+02  0.00000000000E+00  0.0000E+00  9.0
        3    1    4    4  504    0 -8.77385015481E+00  1.07378374421E+02  1.69996331928E+02  2.01260648436E+02  0.00000000000E+00  0.0000E+00  9.0
       -4    1    4    4    0  504  3.01518795880E+01  2.14366872755E+01  1.84624108668E+01  4.13506111496E+01  5.87386917370E-01  0.0000E+00  9.0
</event>
<event>
 8    1   5.1859766E+00   2.8210000E+02  -1.0000000E+00   1.0030000E-01
       11   -1    0    0    0    0  0.00000000000E+00  0.00000000000E+00  7.95698844690E+01  7.95698844690E+01  0.00000000000E+00  0.0000E+00  9.0
      -11   -1    0    0    0    0  0.00000000000E+00  0.00000000000E+00 -2.50000000000E+02  2.50000000000E+02  0.00000000000E+00  0.0000E+00  9.0
       24    2    1    2    0    0  5.49822156758E+01  3.56447289110E+01 -2.07329500905E+02  2.19357914486E+02  2.89617327213E+01  1.3223E-13  9.0
      -24    2    1    2    0    0 -5.49822156758E+01 -3.56447289110E+01  3.68993853712E+01  1.10211969985E+02  8.05699878831E+01  6.8067E-14  9.0
       -3    1    3    3    0  500  5.07713249183E+00  2.23773426748E+00 -6.00247747731E+01  6.02806628659E+01  0.00000000000E+00  0.0000E+00  9.0
        4    1    3    3  500    0  4.99050831839E+01  3.34069946435E+01 -1.47304726132E+02  1.59077251620E+02  5.87386917370E-01  0.0000E+00  9.0
        1    1    4    4  504    0  1.93183023653E+00  8.00522082156E+00 -1.80615391912E+01  1.98503079679E+01  0.00000000000E+00  0.0000E+00  9.0
       -2    1    4    4    0  504 -5.69140459123E+01 -4.36499497325E+01  5.49609245625E+01  9.03616620172E+01  0.00000000000E+00  0.0000E+00  9.0
</event>
<event>
 8    1   5.1859766E+00   5.0000000E+02  -1.0000000E+00   9.3490000E-02
       11   -1    0    0    0    0  0.00000000000E+00  0.00000000000E+00  2.49998147100E+02  2.49998147100E+02  0.00000000000E+00  0.0000E+00  9.0
      -11   -1    0    0    0    0  0.00000000000E+00  0.00000000000E+00 -2.49992982070E+02  2.49992982070E+02  0.00000000000E+00  0.0000E+00  9.0
       24    2    1    2    0    0  9.69056706972E+01  8.98339622058E+00 -2.17782447211E+02  2.51092261857E+02  7.84010154925E+01  1.2524E-13  9.0
      -24    2    1    2    0    0 -9.69056706972E+01 -8.98339622058E+00  2.17787612241E+02  2.48898867315E+02  7.10478126628E+01  3.4542E-14  9.0
       -1    1    3    3    0  500  4.13492603797E+01 -3.28122605465E+01 -6.90699868069E+01  8.69314031500E+01  0.00000000000E+00  0.0000E+00  9.0
        2    1    3    3  500    0  5.55564103175E+01  4.17956567670E+01 -1.48712460404E+02  1.64160858707E+02  0.00000000000E+00  0.0000E+00  9.0
        3    1    4    4  504    0 -3.10729825875E+01 -3.74434640614E+01  9.33973900050E+01  1.05311992230E+02  0.00000000000E+00  0.0000E+00  9.0
       -4    1    4    4    0  504 -6.58326881097E+01  2.84600678409E+01  1.24390222236E+02  1.43586875084E+02  5.87386917370E-01  0.0000E+00  9.0
</event>
<event>
 8    1   5.1859766E+00   5.0000000E+02  -1.0000000E+00   9.3490000E-02
       11   -1    0    0    0    0  0.00000000000E+00  0.00000000000E+00  2.49978307990E+02  2.49978307990E+02  0.00000000000E+00  0.0000E+00  9.0
      -11   -1    0    0    0    0  0.00000000000E+00  0.00000000000E+00 -2.50000000000E+02  2.50000000000E+02  0.00000000000E+00  0.0000E+00  9.0
       24    2    1    2    0    0  4.60854558896E+01 -4.26784536408E+01 -2.28085933995E+02  2.50049570200E+02  8.09708257386E+01  1.9772E-13  9.0
      -24    2    1    2    0    0 -4.60854558896E+01  4.26784536408E+01  2.28064241985E+02  2.49928737782E+02  8.06582658350E+01  2.3064E-13  9.0
       -1    1    3    3    0  500  2.98419940299E+01 -6.62528648877E+01 -1.79600030743E+02  1.93742503742E+02  0.00000000000E+00  0.0000E+00  9.0
        2    1    3    3  500    0  1.62434618597E+01  2.35744112469E+01 -4.84859032523E+01  5.63070664572E+01  0.00000000000E+00  0.0000E+00  9.0
        1    1    4    4  504    0  1.05095366928E+01 -1.31067757780E+01  8.14373516999E+01  8.31521508121E+01  0.00000000000E+00  0.0000E+00  9.0
       -2    1    4    4    0  504 -5.65949925824E+01  5.57852294189E+01  1.46626890285E+02  1.66776586970E+02  0.00000000000E+00  0.0000E+00  9.0
</event>
<event>
 8    1   5.1859766E+00   4.9420000E+02  -1.0000000E+00   9.3620000E-02
       11   -1    0    0    0    0  0.00000000000E+00  0.00000000000E+00  2.48777959840E+02  2.48777959840E+02  0.00000000000E+00  0.0000E+00  9.0
      -11   -1    0    0    0    0  0.00000000000E+00  0.00000000000E+00 -2.45446569470E+02  2.45446569470E+02  0.00000000000E+00  0.0000E+00  9.0
       24    2    1    2    0    0 -1.24799157550E+02  1.99103297647E+02 -1.40927010233E+00  2.48871384290E+02  8.19635712810E+01  4.4485E-14  9.0
      -24    2    1    2    0    0  1.24799157550E+02 -1.99103297647E+02  4.74066047163E+00  2.45353145023E+02  7.04183147476E+01  8.9718E-15  9.0
       -3    1    3    3    0  500 -1.02604195608E+02  1.88135868200E+02 -2.36363134272E+01  2.15595457216E+02  0.00000000000E+00  0.0000E+00  9.0
        4    1    3    3  500    0 -2.21949619419E+01  1.09674294468E+01  2.22270433248E+01  3.32759270739E+01  5.87386917370E-01  0.0000E+00  9.0
        3    1    4    4  504    0  8.94292872065E+01 -1.82044720316E+02 -1.08120129836E+01  2.03112720503E+02  0.00000000000E+00  0.0000E+00  9.0
       -4    1    4    4    0  504  3.53698703431E+01 -1.70585773306E+01  1.55526734552E+01  4.22404245200E+01  5.87386917370E-01  0.0000E+00  9.0
</event>
<event>
 8    1   5.1859766E+00   4.8680000E+02  -1.0000000E+00   9.3790000E-02
       11   -1    0    0    0    0  0.00000000000E+00  0.00000000000E+00  2.37044739930E+02  2.37044739930E+02  0.00000000000E+00  0.0000E+00  9.0
      -11   -1    0    0    0    0  0.00000000000E+00  0.00000000000E+00 -2.49960971370E+02  2.49960971370E+02  0.00000000000E+00  0.0000E+00  9.0
       24    2    1    2    0    0 -2.30125545005E+01  1.26588270914E+01 -2.34637108597E+02  2.49300358484E+02  8.00391931591E+01  9.5109E-14  9.0
      -24    2    1    2    0    0  2.30125545005E+01 -1.26588270914E+01  2.21720877157E+02  2.37705352818E+02  8.15712193306E+01  4.5012E-14  9.0
       -3    1    3    3    0  500  2.21238079186E+01  1.49871187762E+01 -1.58659999155E+02  1.60894598846E+02  0.00000000000E+00  0.0000E+00  9.0
        4    1    3    3  500    0 -4.51363624191E+01 -2.32829168483E+00 -7.59771094422E+01  8.84057596381E+01  5.87386917370E-01  0.0000E+00  9.0
        1    1    4    4  504    0  1.99937997860E+01 -1.84110074113E+01  1.53148909254E+01  3.11971650609E+01  0.00000000000E+00  0.0000E+00  9.0
       -2    1    4    4    0  504  3.01875471452E+00  5.75218031996E+00  2.06405986231E+02  2.06508187757E+02  0.00000000000E+00  0.0000E+00  9.0
</event>
<event>
 8    1   5.1859766E+00   2.3120000E+02  -1.0000000E+00   1.0290000E-01
       11   -1    0    0    0    0  0.00000000000E+00  0.00000000000E+00  2.49732656860E+02  2.49732656860E+02  0.00000000000E+00  0.0000E+00  9.0
      -11   -1    0    0    0    0  0.00000000000E+00  0.00000000000E+00 -5.34982255670E+01  5.34982255670E+01  0.00000000000E+00  0.0000E+00  9.0
       24    2    1    2    0    0 -1.83733052740E+01  5.21227941434E+01  1.61588695093E+01  9.85633401669E+01  7.99953682723E+01  1.7907E-13  9.0
      -24    2    1    2    0    0  1.83733052740E+01 -5.21227941434E+01  1.80075561789E+02  2.04667542265E+02  8.00451802875E+01  5.9705E-14  9.0
       -3    1    3    3    0  500 -1.16416132579E+01  7.35589703069E+01  1.55417468747E+01  7.60788746485E+01  0.00000000000E+00  0.0000E+00  9.0
        4    1    3    3  500    0 -6.73169201610E+00 -2.14361761635E+01  6.17122634587E-01  2.24844655184E+01  5.87386917370E-01  0.0000E+00  9.0
        3    1    4    4  504    0  4.37844125815E+01 -3.38867767685E+01  6.48436932697E+01  8.52648402433E+01  0.00000000000E+00  0.0000E+00  9.0
       -4    1    4    4    0  504 -2.54111073075E+01 -1.82360173749E+01  1.15231868519E+02  1.19402702022E+02  5.87386917370E-01  0.0000E+00  9.0
</event>
<event>
 8    1   5.1859766E+00   4.9860000E+02  -1.0000000E+00   9.3520000E-02
       11   -1    0    0    0    0  0.00000000000E+00  0.00000000000E+00  2.48644343580E+02  2.48644343580E+02  0.00000000000E+00  0.0000E+00  9.0
      -11   -1    0    0    0    0  0.00000000000E+00  0.00000000000E+00 -2.50000000000E+02  2.50000000000E+02  0.00000000000E+00  0.0000E+00  9.0
       24    2    1    2    0    0  2.86259802316E+01 -2.06401270398E+02 -1.13611695776E+02  2.49793407106E+02  7.78986370264E+01  7.0582E-14  9.0
      -24    2    1    2    0    0 -2.86259802316E+01  2.06401270398E+02  1.12256039356E+02  2.48850936479E+02  7.68403477890E+01  8.2804E-15  9.0
       -1    1    3    3    0  500  5.33400351888E+01 -1.64751577519E+02 -7.94498874509E+01  1.90526969915E+02  0.00000000000E+00  0.0000E+00  9.0
        2    1    3    3  500    0 -2.47140549571E+01 -4.16496928789E+01 -3.41618083256E+01  5.92664371917E+01  0.00000000000E+00  0.0000E+00  9.0
        1    1    4    4  504    0 -6.74044707684E+00  4.53848569143E+01 -8.15709869214E+00  4.66021150057E+01  0.00000000000E+00  0.0000E+00  9.0
       -2    1    4    4    0  504 -2.18855331548E+01  1.61016413483E+02  1.20413138049E+02  2.02248821473E+02  0.00000000000E+00  0.0000E+00  9.0
</event>
<event>
 8    1   5.1859766E+00   4.8720000E+02  -1.0000000E+00   9.3780000E-02
       11   -1    0    0    0    0  0.00000000000E+00  0.00000000000E+00  2.48862268330E+02  2.48862268330E+02  0.00000000000E+00  0.0000E+00  9.0
      -11   -1    0    0    0    0  0.00000000000E+00  0.00000000000E+00 -2.38449368130E+02  2.38449368130E+02  0.00000000000E+00  0.0000E+00  9.0
       24    2    1    2    0    0 -3.66336219321E+01 -1.26709372760E+01 -2.22010254180E+02  2.38744845672E+02  7.87906940369E+01  9.2161E-16  9.0
      -24    2    1    2    0    0  3.66336219321E+01  1.26709372760E+01  2.32423154380E+02  2.48566790784E+02  7.91350231035E+01  9.9475E-14  9.0
       -3    1    3    3    0  500  1.85378562573E+01 -2.50693417217E+01 -7.40734143538E+01  8.03678712111E+01  0.00000000000E+00  0.0000E+00  9.0
        4    1    3    3  500    0 -5.51714781894E+01  1.23984044457E+01 -1.47936839826E+02  1.58376974461E+02  5.87386917370E-01  0.0000E+00  9.0
        3    1    4    4  504    0  2.29183901022E+01  4.52583351468E+01  1.09913216001E+02  1.21055708485E+02  0.00000000000E+00  0.0000E+00  9.0
       -4    1    4    4    0  504  1.37152318299E+01 -3.25873978708E+01  1.22509938379E+02  1.27511082299E+02  5.87386917370E-01  0.0000E+00  9.0
</event>
<event>
 8    1   5.1859766E+00   4.6990000E+02  -1.0000000E+00   9.4180000E-02
       11   -1    0    0    0    0  0.00000000000E+00  0.00000000000E+00  2.24580120190E+02  2.24580120190E+02  0.00000000000E+00  0.0000E+00  9.0
      -11   -1    0    0    0    0  0.00000000000E+00  0.00000000000E+00 -2.45799213390E+02  2.45799213390E+02  0.00000000000E+00  0.0000E+00  9.0
       24    2    1    2    0    0 -2.21618401806E+01  8.80734200872E+01 -2.12687792539E+02  2.43316012488E+02  7.56208327905E+01  3.8059E-15  9.0
      -24    2    1    2    0    0  2.21618401806E+01 -8.80734200872E+01  1.91468699329E+02  2.27063321087E+02  8.15439419838E+01  1.2641E-13  9.0
       -1    1    3    3    0  500 -1.12235917311E-01  5.89761367852E+00 -1.09128261713E+02  1.09287565388E+02  0.00000000000E+00  0.0000E+00  9.0
        2    1    3    3  500    0 -2.20496042633E+01  8.21758064087E+01 -1.03559530826E+02  1.34028447100E+02  0.00000000000E+00  0.0000E+00  9.0
       13    1    4    4    0    0  2.76914634209E+01 -9.93338695197E+01  1.87357712825E+02  2.13862008098E+02  1.05700000000E-01  0.0000E+00  9.0
      -14    1    4    4    0    0 -5.52962324023E+00  1.12604494325E+01  4.11098650405E+00  1.32013129891E+01  0.00000000000E+00  0.0000E+00  9.0
</event>
<event>
 8    1   5.1859766E+00   4.8630000E+02  -1.0000000E+00   9.3800000E-02
       11   -1    0    0    0    0  0.00000000000E+00  0.00000000000E+00  2.37239665930E+02  2.37239665930E+02  0.00000000000E+00  0.0000E+00  9.0
      -11   -1    0    0    0    0  0.00000000000E+00  0.00000000000E+00 -2.49243187680E+02  2.49243187680E+02  0.00000000000E+00  0.0000E+00  9.0
       24    2    1    2    0    0  2.49903082008E+01 -1.78047987099E+01 -2.33458415079E+02  2.49139818808E+02  8.14020354994E+01  2.6278E-15  9.0
      -24    2    1    2    0    0 -2.49903082008E+01  1.78047987099E+01  2.21454893329E+02  2.37343034797E+02  7.96738352672E+01  1.4653E-13  9.0
       -3    1    3    3    0  500  3.55510877238E+01 -2.32409762001E+01 -2.33414475963E+02  2.37247424437E+02  0.00000000000E+00  0.0000E+00  9.0
        4    1    3    3  500    0 -1.05607795230E+01  5.43617749015E+00 -4.39391162753E-02  1.18923943710E+01  5.87386917370E-01  0.0000E+00  9.0
        1    1    4    4  504    0 -3.38624223508E+01  3.37177184559E+01  2.10986860319E+02  2.16330773152E+02  0.00000000000E+00  0.0000E+00  9.0
       -2    1    4    4    0  504  8.87211415002E+00 -1.59129197460E+01  1.04680330101E+01  2.10122616449E+01  0.00000000000E+00  0.0000E+00  9.0
</event>
<event>
 8    1   5.1859766E+00   4.9300000E+02  -1.0000000E+00   9.3650000E-02
       11   -1    0    0    0    0  0.00000000000E+00  0.00000000000E+00  2.43201683580E+02  2.43201683580E+02  0.00000000000E+00  0.0000E+00  9.0
      -11   -1    0    0    0    0  0.00000000000E+00  0.00000000000E+00 -2.49827799050E+02  2.49827799050E+02  0.00000000000E+00  0.0000E+00  9.0
       24    2    1    2    0    0 -3.03170382463E+01 -1.73525396970E+02 -1.58547008035E+02  2.49814414431E+02  7.89930484227E+01  8.3557E-14  9.0
      -24    2    1    2    0    0  3.03170382463E+01  1.73525396970E+02  1.51920892565E+02  2.43215068192E+02  7.10170796099E+01  1.1522E-13  9.0
       -3    1    3    3    0  500 -2.89067563035E+01 -3.90247303995E+01 -8.13036206326E+01  9.47037954399E+01  0.00000000000E+00  0.0000E+00  9.0
        4    1    3    3  500    0 -1.41028194273E+00 -1.34500666570E+02 -7.72433874022E+01  1.55110618991E+02  5.87386917370E-01  0.0000E+00  9.0
        3    1    4    4  504    0  2.18760263966E+01  4.97377617187E+01  1.09689517921E+01  5.54321510958E+01  0.00000000000E+00  0.0000E+00  9.0
       -4    1    4    4    0  504  8.44101184965E+00  1.23787635251E+02  1.40951940773E+02  1.87782917096E+02  5.87386917370E-01  0.0000E+00  9.0
</event>
<event>
 8    1   5.1859766E+00   4.8950000E+02  -1.0000000E+00   9.3730000E-02
       11   -1    0    0    0    0  0.00000000000E+00  0.00000000000E+00  2.49598514570E+02  2.49598514570E+02  0.00000000000E+00  0.0000E+00  9.0
      -11   -1    0    0    0    0  0.00000000000E+00  0.00000000000E+00 -2.39955367780E+02  2.39955367780E+02  0.00000000000E+00  0.0000E+00  9.0
       24    2    1    2    0    0  3.89366981238E+01  3.64015236059E+01 -2.20160594934E+02  2.40447466213E+02  8.06421667934E+01  2.2871E-14  9.0
      -24    2    1    2    0    0 -3.89366981238E+01 -3.64015236059E+01  2.29803741724E+02  2.49106416138E+02  8.00194318216E+01  1.7114E-13  9.0
      -13    1    3    3    0    0  2.16971964886E+00  3.46305271475E+01 -2.74243556077E+01  4.42276785154E+01  1.05700000000E-01  0.0000E+00  9.0
       14    1    3    3    0    0  3.67669784750E+01  1.77099645841E+00 -1.92736239326E+02  1.96219787698E+02  0.00000000000E+00  0.0000E+00  9.0
        3    1    4    4  500    0 -4.88809169576E+01 -7.96445403561E+00  2.02420441109E+02  2.08391006402E+02  0.00000000000E+00  0.0000E+00  9.0
       -4    1    4    4    0  500  9.94421883374E+00 -2.84370695703E+01  2.73833006154E+01  4.07154097356E+01  5.87386917370E-01  0.0000E+00  9.0
</event>
<event>
 8    1   5.1859766E+00   4.9950000E+02  -1.0000000E+00   9.3500000E-02
       11   -1    0    0    0    0  0.00000000000E+00  0.00000000000E+00  2.49563890290E+02  2.49563890290E+02  0.00000000000E+00  0.0000E+00  9.0
      -11   -1    0    0    0    0  0.00000000000E+00  0.00000000000E+00 -2.49960353550E+02  2.49960353550E+02  0.00000000000E+00  0.0000E+00  9.0
       24    2    1    2    0    0 -2.11390058616E+02  5.98034636732E+01 -8.81048047465E+01  2.49539050146E+02  7.90257538999E+01  8.5149E-14  9.0
      -24    2    1    2    0    0  2.11390058616E+02 -5.98034636732E+01  8.77083414795E+01  2.49985193690E+02  8.08556290570E+01  1.1550E-14  9.0
       -3    1    3    3    0  500 -5.97179574575E+01 -1.50732121496E+01 -7.11433301585E+00  6.20004024314E+01  0.00000000000E+00  0.0000E+00  9.0
        4    1    3    3  500    0 -1.51672101158E+02  7.48766758229E+01 -8.09904717307E+01  1.87538647715E+02  5.87386917370E-01  0.0000E+00  9.0
        1    1    4    4  504    0  1.58505973791E+01  4.36762338902E+00 -1.29109101412E+01  2.09047643377E+01  0.00000000000E+00  0.0000E+00  9.0
       -2    1    4    4    0  504  1.95539461237E+02 -6.41710870622E+01  1.00619251621E+02  2.29080429352E+02  0.00000000000E+00  0.0000E+00  9.0
</event>
<event>
 8    1   5.1859766E+00   5.0000000E+02  -1.0000000E+00   9.3490000E-02
       11   -1    0    0    0    0  0.00000000000E+00  0.00000000000E+00  2.49999678900E+02  2.49999678900E+02  0.00000000000E+00  0.0000E+00  9.0
      -11   -1    0    0    0    0  0.00000000000E+00  0.00000000000E+00 -2.50000000000E+02  2.50000000000E+02  0.00000000000E+00  0.0000E+00  9.0
       24    2    1    2    0    0 -1.78802712976E+02  1.54948861260E+02  1.01498348025E+01  2.50020226790E+02  8.01719083225E+01  1.3076E-13  9.0
      -24    2    1    2    0    0  1.78802712976E+02 -1.54948861260E+02 -1.01501559005E+01  2.49979452104E+02  8.00446190318E+01  2.0489E-13  9.0
       -3    1    3    3    0  500 -5.55562156533E+01  8.71360415386E+01  3.08190177582E+01  1.07837816597E+02  0.00000000000E+00  0.0000E+00  9.0
        4    1    3    3  500    0 -1.23246497323E+02  6.78128197218E+01 -2.06691829557E+01  1.42182410193E+02  5.87386917370E-01  0.0000E+00  9.0
        1    1    4    4  504    0  1.08199848344E+02 -9.39732106200E+01 -4.52813852237E+01  1.50294961139E+02  0.00000000000E+00  0.0000E+00  9.0
       -2    1    4    4    0  504  7.06028646322E+01 -6.09756506404E+01  3.51312293232E+01  9.96844909655E+01  0.00000000000E+00  0.0000E+00  9.0
</event>
<event>
 8    1   5.1859766E+00   4.9520000E+02  -1.0000000E+00   9.3600000E-02
       11   -1    0    0    0    0  0.00000000000E+00  0.00000000000E+00  2.49841901960E+02  2.49841901960E+02  0.00000000000E+00  0.0000E+00  9.0
      -11   -1    0    0    0    0  0.00000000000E+00  0.00000000000E+00 -2.45362410880E+02  2.45362410880E+02  0.00000000000E+00  0.0000E+00  9.0
       24    2    1    2    0    0  6.70114215652E+01 -5.75407359303E+01 -2.14792557043E+02  2.45183694483E+02  7.85985659396E+01  1.0124E-13  9.0
      -24    2    1    2    0    0 -6.70114215652E+01  5.75407359303E+01  2.19272048123E+02  2.50020618363E+02  8.14162858843E+01  1.0200E-14  9.0
       -3    1    3    3    0  500  2.73372005466E+01  1.64578680038E+01 -3.91758896827E+01  5.05265700932E+01  0.00000000000E+00  0.0000E+00  9.0
        4    1    3    3  500    0  3.96742210186E+01 -7.39986039341E+01 -1.75616667360E+02  1.94657124389E+02  5.87386917370E-01  0.0000E+00  9.0
       13    1    4    4    0    0 -4.55565762661E+01  1.34330262582E+01  1.82875823845E+02  1.88942917187E+02  1.05700000000E-01  0.0000E+00  9.0
      -14    1    4    4    0    0 -2.14548452991E+01  4.41077096720E+01  3.63962242775E+01  6.10777011763E+01  0.00000000000E+00  0.0000E+00  9.0
</event>
<event>
 8    1   5.1859766E+00   4.7480000E+02  -1.0000000E+00   9.4070000E-02
       11   -1    0    0    0    0  0.00000000000E+00  0.00000000000E+00  2.25543532100E+02  2.25543532100E+02  0.00000000000E+00  0.0000E+00  9.0
      -11   -1    0    0    0    0  0.00000000000E+00  0.00000000000E+00 -2.49907398590E+02  2.49907398590E+02  0.00000000000E+00  0.0000E+00  9.0
       24    2    1    2    0    0 -7.74853862776E+00 -4.03906489955E-01 -2.35712656887E+02  2.49038365467E+02  7.99965490917E+01  1.2151E-14  9.0
      -24    2    1    2    0    0  7.74853862776E+00  4.03906489955E-01  2.11348790387E+02  2.26412565224E+02  8.08339996676E+01  6.9168E-14  9.0
       -3    1    3    3    0  500  2.39705059713E+01 -2.10979524609E+01 -4.87505026773E+01  5.82779569465E+01  0.00000000000E+00  0.0000E+00  9.0
        4    1    3    3  500    0 -3.17190445991E+01  2.06940459709E+01 -1.86962154209E+02  1.90760408521E+02  5.87386917370E-01  0.0000E+00  9.0
        1    1    4    4  504    0  2.92583933223E+01  2.63121312679E+01  1.61718494748E+02  1.66436935130E+02  0.00000000000E+00  0.0000E+00  9.0
       -2    1    4    4    0  504 -2.15098546945E+01 -2.59082247779E+01  4.96302956383E+01  5.99756300948E+01  0.00000000000E+00  0.0000E+00  9.0
</event>
<event>
 8    1   5.1859766E+00   4.9950000E+02  -1.0000000E+00   9.3500000E-02
       11   -1    0    0    0    0  0.00000000000E+00  0.00000000000E+00  2.49999970460E+02  2.49999970460E+02  0.00000000000E+00  0.0000E+00  9.0
      -11   -1    0    0    0    0  0.00000000000E+00  0.00000000000E+00 -2.49538824980E+02  2.49538824980E+02  0.00000000000E+00  0.0000E+00  9.0
       24    2    1    2    0    0 -1.79115538123E+01 -2.86026039493E+01 -2.34081427362E+02  2.49566778704E+02  7.96902107195E+01  1.1225E-13  9.0
      -24    2    1    2    0    0  1.79115538123E+01  2.86026039493E+01  2.34542572842E+02  2.49972016732E+02  7.96043840578E+01  3.6394E-14  9.0
       -1    1    3    3    0  500 -1.19417344452E+01  2.75667369992E+01 -8.34091699909E+01  8.86544959317E+01  0.00000000000E+00  0.0000E+00  9.0
        2    1    3    3  500    0 -5.96981936704E+00 -5.61693409485E+01 -1.50672257371E+02  1.60912282772E+02  0.00000000000E+00  0.0000E+00  9.0
        3    1    4    4  504    0 -2.05518079452E+01 -2.40330442184E+00  1.66814770761E+01  2.65786448000E+01  0.00000000000E+00  0.0000E+00  9.0
       -4    1    4    4    0  504  3.84633617575E+01  3.10059083711E+01  2.17861095765E+02  2.23393371932E+02  5.87386917370E-01  0.0000E+00  9.0
</event>
<event>
 8    1   5.1859766E+00   3.7240000E+02  -1.0000000E+00   9.6870000E-02
       11   -1    0    0    0    0  0.00000000000E+00  0.00000000000E+00  2.47645098680E+02  2.47645098680E+02  0.00000000000E+00  0.0000E+00  9.0
      -11   -1    0    0    0    0  0.00000000000E+00  0.00000000000E+00 -1.40030367620E+02  1.40030367620E+02  0.00000000000E+00  0.0000E+00  9.0
       24    2    1    2    0    0  2.05296874692E+01 -1.97776303609E+01 -1.18319568584E+02  1.46814904187E+02  8.21125632976E+01  3.3391E-14  9.0
      -24    2    1    2    0    0 -2.05296874692E+01  1.97776303609E+01  2.25934299634E+02  2.40860562113E+02  7.84530426460E+01  5.6188E-14  9.0
       -3    1    3    3    0  500 -6.02757935586E+00 -1.46464850000E+00  1.14890578683E+01  1.30566212636E+01  0.00000000000E+00  0.0000E+00  9.0
        4    1    3    3  500    0  2.65572668251E+01 -1.83129818609E+01 -1.29808626452E+02  1.33758282923E+02  5.87386917370E-01  0.0000E+00  9.0
        3    1    4    4  504    0  2.63347206355E+01  1.79812796987E+00  3.75268731318E+01  4.58804640582E+01  0.00000000000E+00  0.0000E+00  9.0
       -4    1    4    4    0  504 -4.68644081047E+01  1.79795023910E+01  1.88407426502E+02  1.94980098055E+02  5.87386917370E-01  0.0000E+00  9.0
</event>
<event>
 8    1   5.1859766E+00   4.9280000E+02  -1.0000000E+00   9.3650000E-02
       11   -1    0    0    0    0  0.00000000000E+00  0.00000000000E+00  2.43366002760E+02  2.43366002760E+02  0.00000000000E+00  0.0000E+00  9.0
      -11   -1    0    0    0    0  0.00000000000E+00  0.00000000000E+00 -2.49448081200E+02  2.49448081200E+02  0.00000000000E+00  0.0000E+00  9.0
       24    2    1    2    0    0  3.49695047627E+01 -3.85959706806E+01 -2.30043146225E+02  2.49861905946E+02  8.24536700332E+01  7.1190E-14  9.0
      -24    2    1    2    0    0 -3.49695047627E+01  3.85959706806E+01  2.23961067795E+02  2.42952178020E+02  7.84518049548E+01  1.7484E-13  9.0
       -1    1    3    3    0  500  1.76556275369E+01 -6.40098761728E+01 -1.46736571346E+02  1.61060879179E+02  0.00000000000E+00  0.0000E+00  9.0
        2    1    3    3  500    0  1.73138772257E+01  2.54139054922E+01 -8.33065748789E+01  8.88010267677E+01  0.00000000000E+00  0.0000E+00  9.0
        3    1    4    4  504    0 -5.76467070797E+01  3.53253293016E+01  1.33642593720E+02  1.49771040538E+02  0.00000000000E+00  0.0000E+00  9.0
       -4    1    4    4    0  504  2.26772023171E+01  3.27064137901E+00  9.03184740744E+01  9.31811374822E+01  5.87386917370E-01  0.0000E+00  9.0
</event>
<event>
 8    1   5.1859766E+00   4.9980000E+02  -1.0000000E+00   9.3490000E-02
       11   -1    0    0    0    0  0.00000000000E+00  0.00000000000E+00  2.50000000000E+02  2.50000000000E+02  0.00000000000E+00  0.0000E+00  9.0
      -11   -1    0    0    0    0  0.00000000000E+00  0.00000000000E+00 -2.49834266750E+02  2.49834266750E+02  0.00000000000E+00  0.0000E+00  9.0
       24    2    1    2    0    0  1.48972999725E+02  1.74261706322E+02 -5.82620000674E+01  2.49546323552E+02  7.94909429389E+01  2.4480E-14  9.0
      -24    2    1    2    0    0 -1.48972999725E+02 -1.74261706322E+02  5.84277333194E+01  2.50287943198E+02  8.16710325159E+01  2.5670E-13  9.0
      -13    1    3    3    0    0  4.01726950636E+01  6.92131710600E+01 -5.70917435715E+01  9.83045616102E+01  1.05700000000E-01  0.0000E+00  9.0
       14    1    3    3    0    0  1.08800304661E+02  1.05048535262E+02 -1.17025649588E+00  1.51241761942E+02  0.00000000000E+00  0.0000E+00  9.0
        3    1    4    4  500    0 -5.71951265643E+01 -8.38234353637E+01  6.62679170886E+01  1.21198546419E+02  0.00000000000E+00  0.0000E+00  9.0
       -4    1    4    4    0  500 -9.17778731602E+01 -9.04382709585E+01 -7.84018376926E+00  1.29089396779E+02  5.87386917370E-01  0.0000E+00  9.0
</event>
<event>
 8    1   5.1859766E+00   5.0000000E+02  -1.0000000E+00   9.3490000E-02
       11   -1    0    0    0    0  0.00000000000E+00  0.00000000000E+00  2.49997791500E+02  2.49997791500E+02  0.00000000000E+00  0.0000E+00  9.0
      -11   -1    0    0    0    0  0.00000000000E+00  0.00000000000E+00 -2.49999999990E+02  2.49999999990E+02  0.00000000000E+00  0.0000E+00  9.0
       24    2    1    2    0    0 -7.10790773817E+01  5.66742436395E+01 -2.18054446452E+02  2.49702839158E+02  8.08675530283E+01  2.3407E-14  9.0
      -24    2    1    2    0    0  7.10790773817E+01 -5.66742436395E+01  2.18052237962E+02  2.50294952325E+02  8.26836111077E+01  5.3269E-14  9.0
       -1    1    3    3    0  500 -4.02138781230E+01  3.07458003002E+01 -1.98587754709E+02  2.04937933410E+02  0.00000000000E+00  0.0000E+00  9.0
        2    1    3    3  500    0 -3.08651992587E+01  2.59284433393E+01 -1.94666917425E+01  4.47649057485E+01  0.00000000000E+00  0.0000E+00  9.0
        1    1    4    4  504    0  1.10104613364E+01 -4.63827068266E+01  4.04267572372E+01  6.25052673949E+01  0.00000000000E+00  0.0000E+00  9.0
       -2    1    4    4    0  504  6.00686160453E+01 -1.02915368129E+01  1.77625480725E+02  1.87789684930E+02  0.00000000000E+00  0.0000E+00  9.0
</event>
<event>
 8    1   5.1859766E+00   5.0000000E+02  -1.0000000E+00   9.3490000E-02
       11   -1    0    0    0    0  0.00000000000E+00  0.00000000000E+00  2.49999245560E+02  2.49999245560E+02  0.00000000000E+00  0.0000E+00  9.0
      -11   -1    0    0    0    0  0.00000000000E+00  0.00000000000E+00 -2.49999590970E+02  2.49999590970E+02  0.00000000000E+00  0.0000E+00  9.0
       24    2    1    2    0    0  6.83237687296E+01  8.80400034400E+01 -2.07950454745E+02  2.50064236204E+02  8.28827546618E+01  8.2426E-14  9.0
      -24    2    1    2    0    0 -6.83237687296E+01 -8.80400034400E+01  2.07950109335E+02  2.49934600328E+02  8.24916777004E+01  7.4303E-16  9.0
       -3    1    3    3    0  500  3.74333255426E+01  1.63929171849E+01 -1.42434681720E+02  1.48181038435E+02  0.00000000000E+00  0.0000E+00  9.0
        4    1    3    3  500    0  3.08904431869E+01  7.16470862551E+01 -6.55157730253E+01  1.01883197769E+02  5.87386917370E-01  0.0000E+00  9.0
        3    1    4    4  504    0  1.75827919068E+01 -2.83569014483E+01  4.02127938442E+01  5.22526288309E+01  0.00000000000E+00  0.0000E+00  9.0
       -4    1    4    4    0  504 -8.59065606364E+01 -5.96831019917E+01  1.67737315491E+02  1.97681971498E+02  5.87386917370E-01  0.0000E+00  9.0
</event>
<event>
 8    1   5.1859766E+00   4.4210000E+02  -1.0000000E+00   9.4870000E-02
       11   -1    0    0    0    0  0.00000000000E+00  0.00000000000E+00  1.97989136900E+02  1.97989136900E+02  0.00000000000E+00  0.0000E+00  9.0
      -11   -1    0    0    0    0  0.00000000000E+00  0.00000000000E+00 -2.46746890050E+02  2.46746890050E+02  0.00000000000E+00  0.0000E+00  9.0
       24    2    1    2    0    0  8.59907374652E+01  6.36643680545E+01 -2.01502635200E+02  2.42125028632E+02  8.10781031350E+01  5.5835E-14  9.0
      -24    2    1    2    0    0 -8.59907374652E+01 -6.36643680545E+01  1.52744882040E+02  2.02610998320E+02  7.92001197053E+01  3.6030E-13  9.0
      -13    1    3    3    0    0  5.05987558540E+01  3.60329274529E+01 -3.85686665262E+01  7.31174340694E+01  1.05700000000E-01  0.0000E+00  9.0
       14    1    3    3    0    0  3.53919816113E+01  2.76314406016E+01 -1.62933968673E+02  1.69007594562E+02  0.00000000000E+00  0.0000E+00  9.0
        1    1    4    4  500    0 -4.25466400120E+01 -7.08433881868E+01  1.27252987113E+02  1.51731094227E+02  0.00000000000E+00  0.0000E+00  9.0
       -2    1    4    4    0  500 -4.34440974532E+01  7.17902013236E+00  2.54918949269E+01  5.08799040933E+01  0.00000000000E+00  0.0000E+00  9.0
</event>
<event>
 8    1   5.1859766E+00   4.6410000E+02  -1.0000000E+00   9.4320000E-02
       11   -1    0    0    0    0  0.00000000000E+00  0.00000000000E+00  2.23391332590E+02  2.23391332590E+02  0.00000000000E+00  0.0000E+00  9.0
      -11   -1    0    0    0    0  0.00000000000E+00  0.00000000000E+00 -2.40997219250E+02  2.40997219250E+02  0.00000000000E+00  0.0000E+00  9.0
       24    2    1    2    0    0 -2.52721484763E+01 -2.15946967158E+02 -3.81826512980E+00  2.32124684236E+02  8.12127808259E+01  5.1487E-13  9.0
      -24    2    1    2    0    0  2.52721484763E+01  2.15946967158E+02 -1.37876215297E+01  2.32263867599E+02  8.05272101290E+01  6.1441E-14  9.0
       -1    1    3    3    0  500  2.68852380360E+01 -8.92486893540E+01 -1.59871666447E+01  9.45713173906E+01  0.00000000000E+00  0.0000E+00  9.0
        2    1    3    3  500    0 -5.21573865124E+01 -1.26698277804E+02  1.21689015149E+01  1.37553366845E+02  0.00000000000E+00  0.0000E+00  9.0
        1    1    4    4  504    0  1.22749324474E+00  1.47602324946E+02 -4.36105443870E+01  1.53915017626E+02  0.00000000000E+00  0.0000E+00  9.0
       -2    1    4    4    0  504  2.40446552316E+01  6.83446422126E+01  2.98229228573E+01  7.83488499732E+01  0.00000000000E+00  0.0000E+00  9.0
</event>
<event>
 8    1   5.1859766E+00   4.6610000E+02  -1.0000000E+00   9.4270000E-02
       11   -1    0    0    0    0  0.00000000000E+00  0.00000000000E+00  2.47175313120E+02  2.47175313120E+02  0.00000000000E+00  0.0000E+00  9.0
      -11   -1    0    0    0    0  0.00000000000E+00  0.00000000000E+00 -2.19724117700E+02  2.19724117700E+02  0.00000000000E+00  0.0000E+00  9.0
       24    2    1    2    0    0  2.72742019704E+01  9.26058457602E+00 -2.02761490221E+02  2.20754122523E+02  8.24046125796E+01  5.7797E-14  9.0
      -24    2    1    2    0    0 -2.72742019704E+01 -9.26058457602E+00  2.30212685631E+02  2.46145308296E+02  8.22191683909E+01  4.1938E-14  9.0
       -3    1    3    3    0  500 -2.34662652474E+01  1.10891763631E+00 -1.27324401616E+02  1.29473543822E+02  0.00000000000E+00  0.0000E+00  9.0
        4    1    3    3  500    0  5.07404672178E+01  8.15166693971E+00 -7.54370886056E+01  9.12805787014E+01  5.87386917370E-01  0.0000E+00  9.0
        3    1    4    4  504    0 -1.76127201956E+01 -3.74641010654E+00  2.52228113780E+00  1.81825576725E+01  0.00000000000E+00  0.0000E+00  9.0
       -4    1    4    4    0  504 -9.66148177478E+00 -5.51417446948E+00  2.27690404493E+02  2.27962750624E+02  5.87386917370E-01  0.0000E+00  9.0
</event>
<event>
 8    1   5.1859766E+00   4.9050000E+02  -1.0000000E+00   9.3700000E-02
       11   -1    0    0    0    0  0.00000000000E+00  0.00000000000E+00  2.49999996970E+02  2.49999996970E+02  0.00000000000E+00  0.0000E+00  9.0
      -11   -1    0    0    0    0  0.00000000000E+00  0.00000000000E+00 -2.40602946320E+02  2.40602946320E+02  0.00000000000E+00  0.0000E+00  9.0
       24    2    1    2    0    0  3.67630337544E+01  6.59786810359E+01 -2.14017454628E+02  2.41396674819E+02  8.22446151815E+01  4.6698E-14  9.0
      -24    2    1    2    0    0 -3.67630337544E+01 -6.59786810359E+01  2.23414505268E+02  2.49206268466E+02  8.05295975176E+01  1.6241E-13  9.0
      -13    1    3    3    0    0  5.88673571084E+01  2.81093579847E+01 -1.01704223082E+02  1.20827405436E+02  1.05700000000E-01  0.0000E+00  9.0
       14    1    3    3    0    0 -2.21043233540E+01  3.78693230512E+01 -1.12313231546E+02  1.20569269383E+02  0.00000000000E+00  0.0000E+00  9.0
        3    1    4    4  500    0 -1.64696616704E+01 -4.51676654227E+01  2.12945819047E+02  2.18305496049E+02  0.00000000000E+00  0.0000E+00  9.0
       -4    1    4    4    0  500 -2.02933720840E+01 -2.08110156132E+01  1.04686862207E+01  3.09007724171E+01  5.87386917370E-01  0.0000E+00  9.0
</event>
<event>
 8    1   5.1859766E+00   3.8230000E+02  -1.0000000E+00   9.6560000E-02
       11   -1    0    0    0    0  0.00000000000E+00  0.00000000000E+00  2.40291088020E+02  2.40291088020E+02  0.00000000000E+00  0.0000E+00  9.0
      -11   -1    0    0    0    0  0.00000000000E+00  0.00000000000E+00 -1.52094925490E+02  1.52094925490E+02  0.00000000000E+00  0.0000E+00  9.0
       24    2    1    2    0    0 -1.27166313222E+01 -6.73399702813E+01 -1.19132773938E+02  1.59967342969E+02  8.18568792504E+01  9.1071E-14  9.0
      -24    2    1    2    0    0  1.27166313222E+01  6.73399702813E+01  2.07328936468E+02  2.32418670528E+02  7.96038077183E+01  6.4225E-14  9.0
       -1    1    3    3    0  500 -2.52801996036E+01  1.71878257705E+00 -4.77295982519E+00  2.57841783084E+01  0.00000000000E+00  0.0000E+00  9.0
        2    1    3    3  500    0  1.25635682814E+01 -6.90587528584E+01 -1.14359814113E+02  1.34183164661E+02  0.00000000000E+00  0.0000E+00  9.0
        3    1    4    4  504    0 -2.43201470989E+01  6.04168919068E+01  1.07195939985E+02  1.25429820744E+02  0.00000000000E+00  0.0000E+00  9.0
       -4    1    4    4    0  504  3.70367784211E+01  6.92307837454E+00  1.00132996484E+02  1.06988849784E+02  5.87386917370E-01  0.0000E+00  9.0
</event>
<event>
 8    1   5.1859766E+00   4.7540000E+02  -1.0000000E+00   9.4050000E-02
       11   -1    0    0    0    0  0.00000000000E+00  0.00000000000E+00  2.29035236230E+02  2.29035236230E+02  0.00000000000E+00  0.0000E+00  9.0
      -11   -1    0    0    0    0  0.00000000000E+00  0.00000000000E+00 -2.46694869940E+02  2.46694869940E+02  0.00000000000E+00  0.0000E+00  9.0
       24    2    1    2    0    0  5.71265573125E+01 -4.74493550419E+01 -2.19983628121E+02  2.46061586670E+02  8.14777451143E+01  1.0342E-13  9.0
      -24    2    1    2    0    0 -5.71265573125E+01  4.74493550419E+01  2.02323994401E+02  2.29668519505E+02  7.93583347642E+01  6.9785E-14  9.0
       -1    1    3    3    0  500  7.73250168838E+01 -4.01142636531E+01 -1.57484554491E+02  1.79971379080E+02  0.00000000000E+00  0.0000E+00  9.0
        2    1    3    3  500    0 -2.01984595713E+01 -7.33509138879E+00 -6.24990736302E+01  6.60902075906E+01  0.00000000000E+00  0.0000E+00  9.0
        1    1    4    4  504    0 -1.26128566051E+01 -1.61784013360E+01  9.50508409861E+01  9.72393294593E+01  0.00000000000E+00  0.0000E+00  9.0
       -2    1    4    4    0  504 -4.45137007074E+01  6.36277563778E+01  1.07273153415E+02  1.32429190045E+02  0.00000000000E+00  0.0000E+00  9.0
</event>
<event>
 8    1   5.1859766E+00   4.9540000E+02  -1.0000000E+00   9.3590000E-02
       11   -1    0    0    0    0  0.00000000000E+00  0.00000000000E+00  2.46411621850E+02  2.46411621850E+02  0.00000000000E+00  0.0000E+00  9.0
      -11   -1    0    0    0    0  0.00000000000E+00  0.00000000000E+00 -2.48995581110E+02  2.48995581110E+02  0.00000000000E+00  0.0000E+00  9.0
       24    2    1    2    0    0 -5.31370316765E+00  1.44223061509E+01 -2.34376263848E+02  2.47987551620E+02  7.95572394358E+01  2.1205E-13  9.0
      -24    2    1    2    0    0  5.31370316765E+00 -1.44223061509E+01  2.31792304588E+02  2.47419651339E+02  8.51620399364E+01  1.5667E-14  9.0
       -3    1    3    3    0  500  7.46535064842E+00  3.27742288580E+00  3.94901290645E+00  9.05912048775E+00  0.00000000000E+00  0.0000E+00  9.0
        4    1    3    3  500    0 -1.27790538161E+01  1.11448832651E+01 -2.38325276755E+02  2.38928431132E+02  5.87386917370E-01  0.0000E+00  9.0
        3    1    4    4  504    0  1.45184346070E+01 -2.90435920068E+01  2.27232943627E+02  2.29541120171E+02  0.00000000000E+00  0.0000E+00  9.0
       -4    1    4    4    0  504 -9.20473143940E+00  1.46212858560E+01  4.55936096192E+00  1.78785311680E+01  5.87386917370E-01  0.0000E+00  9.0
</event>
<event>
 8    1   5.1859766E+00   4.9400000E+02  -1.0000000E+00   9.3630000E-02
       11   -1    0    0    0    0  0.00000000000E+00  0.00000000000E+00  2.43987353530E+02  2.43987353530E+02  0.00000000000E+00  0.0000E+00  9.0
      -11   -1    0    0    0    0  0.00000000000E+00  0.00000000000E+00 -2.50000000000E+02  2.50000000000E+02  0.00000000000E+00  0.0000E+00  9.0
       24    2    1    2    0    0 -1.82337902623E+02 -3.37336925454E+01 -1.43606447845E+02  2.49051150445E+02  8.37770310387E+01  3.4289E-13  9.0
      -24    2    1    2    0    0  1.82337902623E+02  3.37336925454E+01  1.37593801365E+02  2.44936203087E+02  8.17105664100E+01  2.2215E-13  9.0
       -1    1    3    3    0  500 -5.44576985235E+01 -4.86710011292E+01 -6.77181520363E+01  9.96004788874E+01  0.00000000000E+00  0.0000E+00  9.0
        2    1    3    3  500    0 -1.27880204100E+02  1.49373085838E+01 -7.58882958083E+01  1.49450671558E+02  0.00000000000E+00  0.0000E+00  9.0
       13    1    4    4    0    0  1.68741696413E+02  5.46150083096E+01  1.15658228336E+02  2.11738981284E+02  1.05700000000E-01  0.0000E+00  9.0
      -14    1    4    4    0    0  1.35962062107E+01 -2.08813157641E+01  2.19355730289E+01  3.31972218035E+01  0.00000000000E+00  0.0000E+00  9.0
</event>
<event>
 8    1   5.1859766E+00   4.9110000E+02  -1.0000000E+00   9.3690000E-02
       11   -1    0    0    0    0  0.00000000000E+00  0.00000000000E+00  2.41165983070E+02  2.41165983070E+02  0.00000000000E+00  0.0000E+00  9.0
      -11   -1    0    0    0    0  0.00000000000E+00  0.00000000000E+00 -2.50000000000E+02  2.50000000000E+02  0.00000000000E+00  0.0000E+00  9.0
       24    2    1    2    0    0  1.03062683563E+01  1.04756528658E+02 -2.11336243120E+02  2.48998719619E+02  7.91024983939E+01  4.7129E-14  9.0
      -24    2    1    2    0    0 -1.03062683563E+01 -1.04756528658E+02  2.02502226190E+02  2.42167263450E+02  8.09795184664E+01  2.2428E-13  9.0
       -3    1    3    3    0  500 -2.56770960696E+01  6.09195722811E+01 -1.57444864281E+02  1.70761215848E+02  0.00000000000E+00  0.0000E+00  9.0
        4    1    3    3  500    0  3.59833644260E+01  4.38369563769E+01 -5.38913788387E+01  7.82375037711E+01  5.87386917370E-01  0.0000E+00  9.0
        1    1    4    4  504    0 -1.15799811924E+01 -9.03938453749E+01  2.07720963384E+02  2.26832850080E+02  0.00000000000E+00  0.0000E+00  9.0
       -2    1    4    4    0  504  1.27371283604E+00 -1.43626832831E+01 -5.21873719490E+00  1.53344133696E+01  0.00000000000E+00  0.0000E+00  9.0
</event>
<event>
 8    1   5.1859766E+00   4.7110000E+02  -1.0000000E+00   9.4150000E-02
       11   -1    0    0    0    0  0.00000000000E+00  0.00000000000E+00  2.22756151350E+02  2.22756151350E+02  0.00000000000E+00  0.0000E+00  9.0
      -11   -1    0    0    0    0  0.00000000000E+00  0.00000000000E+00 -2.49078694460E+02  2.49078694460E+02  0.00000000000E+00  0.0000E+00  9.0
       24    2    1    2    0    0  9.54532137414E+01 -1.58015163111E+01 -2.13669833734E+02  2.46210758860E+02  7.48594416189E+01  6.2501E-14  9.0
      -24    2    1    2    0    0 -9.54532137414E+01  1.58015163111E+01  1.87347290624E+02  2.25624086952E+02  8.02883389894E+01  1.6723E-16  9.0
       -1    1    3    3    0  500  4.27979331865E+01 -4.39351078930E+01 -9.03732065198E+01  1.09221212442E+02  0.00000000000E+00  0.0000E+00  9.0
        2    1    3    3  500    0  5.26552805549E+01  2.81335915819E+01 -1.23296627214E+02  1.36989546418E+02  0.00000000000E+00  0.0000E+00  9.0
        1    1    4    4  504    0 -2.05746347348E+01 -2.53939498895E+01  9.17381551490E+01  9.73861252725E+01  0.00000000000E+00  0.0000E+00  9.0
       -2    1    4    4    0  504 -7.48785790066E+01  4.11954662006E+01  9.56091354747E+01  1.28237961680E+02  0.00000000000E+00  0.0000E+00  9.0
</event>
<event>
 8    1   5.1859766E+00   5.0000000E+02  -1.0000000E+00   9.3490000E-02
       11   -1    0    0    0    0  0.00000000000E+00  0.00000000000E+00  2.50000000000E+02  2.50000000000E+02  0.00000000000E+00  0.0000E+00  9.0
      -11   -1    0    0    0    0  0.00000000000E+00  0.00000000000E+00 -2.49999999890E+02  2.49999999890E+02  0.00000000000E+00  0.0000E+00  9.0
       24    2    1    2    0    0  8.81855672151E+01 -9.39667188660E+01 -2.03103703590E+02  2.53457798635E+02  7.98955740806E+01  1.3316E-14  9.0
      -24    2    1    2    0    0 -8.81855672151E+01  9.39667188660E+01  2.03103703700E+02  2.46542201249E+02  5.40879286048E+01  3.3133E-14  9.0
       -1    1    3    3    0  500  1.58319281995E+01  7.72822191973E-01  2.25175497058E+00  1.60099220830E+01  0.00000000000E+00  0.0000E+00  9.0
        2    1    3    3  500    0  7.23536390156E+01 -9.47395410580E+01 -2.05355458561E+02  2.37447876552E+02  0.00000000000E+00  0.0000E+00  9.0
        1    1    4    4  504    0 -1.93184501784E+01  5.98721100449E+01  9.11682104281E+01  1.10767841322E+02  0.00000000000E+00  0.0000E+00  9.0
       -2    1    4    4    0  504 -6.88671170368E+01  3.40946088211E+01  1.11935493272E+02  1.35774359927E+02  0.00000000000E+00  0.0000E+00  9.0
</event>
<event>
 8    1   5.1859766E+00   4.8000000E+02  -1.0000000E+00   9.3940000E-02
       11   -1    0    0    0    0  0.00000000000E+00  0.00000000000E+00  2.50000000000E+02  2.50000000000E+02  0.00000000000E+00  0.0000E+00  9.0
      -11   -1    0    0    0    0  0.00000000000E+00  0.00000000000E+00 -2.30389623180E+02  2.30389623180E+02  0.00000000000E+00  0.0000E+00  9.0
       24    2    1    2    0    0  2.21181623605E+01 -1.57446318836E+00 -2.15499409236E+02  2.30948187352E+02  8.00336043153E+01  9.5136E-14  9.0
      -24    2    1    2    0    0 -2.21181623605E+01  1.57446318836E+00  2.35109786046E+02  2.49441435831E+02  8.03288638929E+01  5.5867E-14  9.0
       -1    1    3    3    0  500 -2.46725394412E+01 -2.07917990294E+01 -7.62244871993E+01  8.27720095089E+01  0.00000000000E+00  0.0000E+00  9.0
        2    1    3    3  500    0  4.67907018016E+01  1.92173358410E+01 -1.39274922037E+02  1.48176177843E+02  0.00000000000E+00  0.0000E+00  9.0
        1    1    4    4  504    0  1.45343087111E+01 -3.03218609835E+00  1.92401630027E+02  1.92973644624E+02  0.00000000000E+00  0.0000E+00  9.0
       -2    1    4    4    0  504 -3.66524710716E+01  4.60664928672E+00  4.27081560187E+01  5.64677912072E+01  0.00000000000E+00  0.0000E+00  9.0
</event>
<event>
 8    1   5.1859766E+00   4.9870000E+02  -1.0000000E+00   9.3520000E-02
       11   -1    0    0    0    0  0.00000000000E+00  0.00000000000E+00  2.48754194190E+02  2.48754194190E+02  0.00000000000E+00  0.0000E+00  9.0
      -11   -1    0    0    0    0  0.00000000000E+00  0.00000000000E+00 -2.49995140060E+02  2.49995140060E+02  0.00000000000E+00  0.0000E+00  9.0
       24    2    1    2    0    0 -1.87494353758E+02  1.42645529787E+02 -2.93706647247E+01  2.48384534918E+02  7.30093239305E+01  1.3699E-13  9.0
      -24    2    1    2    0    0  1.87494353758E+02 -1.42645529787E+02  2.81297188587E+01  2.50364799333E+02  7.99335461652E+01  4.4376E-14  9.0
       -1    1    3    3    0  500 -1.59485704931E+02  1.48614001796E+02 -2.66555710493E+01  2.19618603664E+02  0.00000000000E+00  0.0000E+00  9.0
        2    1    3    3  500    0 -2.80086488277E+01 -5.96847200970E+00 -2.71509367537E+00  2.87659312547E+01  0.00000000000E+00  0.0000E+00  9.0
        3    1    4    4  504    0  1.25334383139E+02 -1.31168071698E+02  4.06585318677E+01  1.85921722355E+02  0.00000000000E+00  0.0000E+00  9.0
       -4    1    4    4    0  504  6.21599706192E+01 -1.14774580886E+01 -1.25288130090E+01  6.44430769778E+01  5.87386917370E-01  0.0000E+00  9.0
</event>
<event>
 8    1   5.1859766E+00   3.2880000E+02  -1.0000000E+00   9.8370000E-02
       11   -1    0    0    0    0  0.00000000000E+00  0.00000000000E+00  1.10436573180E+02  1.10436573180E+02  0.00000000000E+00  0.0000E+00  9.0
      -11   -1    0    0    0    0  0.00000000000E+00  0.00000000000E+00 -2.44800427050E+02  2.44800427050E+02  0.00000000000E+00  0.0000E+00  9.0
       24    2    1    2    0    0 -1.38754020364E+01  1.40946888864E+02 -5.17351420553E+01  1.71689374427E+02  8.21106820418E+01  2.1222E-14  9.0
      -24    2    1    2    0    0  1.38754020364E+01 -1.40946888864E+02 -8.26287118177E+01  1.83547625798E+02  8.24843903846E+01  1.2459E-13  9.0
       -3    1    3    3    0  500  1.12037299042E+01  3.65867814792E+01 -5.17459805087E+01  6.43565275755E+01  0.00000000000E+00  0.0000E+00  9.0
        4    1    3    3  500    0 -2.50791319406E+01  1.04360107385E+02  1.08384533343E-02  1.07332846851E+02  5.87386917370E-01  0.0000E+00  9.0
        1    1    4    4  504    0 -2.79946584208E+01 -7.94184105142E+01 -2.06671169240E+01  8.67070617115E+01  0.00000000000E+00  0.0000E+00  9.0
       -2    1    4    4    0  504  4.18700604571E+01 -6.15284783503E+01 -6.19615948937E+01  9.68405640863E+01  0.00000000000E+00  0.0000E+00  9.0
</event>
<event>
 8    1   5.1859766E+00   5.0000000E+02  -1.0000000E+00   9.3490000E-02
       11   -1    0    0    0    0  0.00000000000E+00  0.00000000000E+00  2.50000000000E+02  2.50000000000E+02  0.00000000000E+00  0.0000E+00  9.0
      -11   -1    0    0    0    0  0.00000000000E+00  0.00000000000E+00 -2.49999088930E+02  2.49999088930E+02  0.00000000000E+00  0.0000E+00  9.0
       24    2    1    2    0    0 -5.53402684885E+01  6.46967063288E+00 -2.30538617585E+02  2.49990890814E+02  7.90125897430E+01  3.3565E-13  9.0
      -24    2    1    2    0    0  5.53402684885E+01 -6.46967063288E+00  2.30539528655E+02  2.50008198106E+02  7.90646753836E+01  1.3817E-13  9.0
       -1    1    3    3    0  500 -3.45433622220E+01  4.01749547340E+01 -1.66183630703E+02  1.74425542783E+02  0.00000000000E+00  0.0000E+00  9.0
        2    1    3    3  500    0 -2.07969062666E+01 -3.37052841011E+01 -6.43549868819E+01  7.55653480318E+01  0.00000000000E+00  0.0000E+00  9.0
        1    1    4    4  504    0  6.13334827302E+01  2.24856191162E+01  1.79562819792E+02  1.91076438690E+02  0.00000000000E+00  0.0000E+00  9.0
       -2    1    4    4    0  504 -5.99321424166E+00 -2.89552897491E+01  5.09767088627E+01  5.89317594161E+01  0.00000000000E+00  0.0000E+00  9.0
</event>
<event>
 8    1   5.1859766E+00   3.1200000E+02  -1.0000000E+00   9.9020000E-02
       11   -1    0    0    0    0  0.00000000000E+00  0.00000000000E+00  2.28355682880E+02  2.28355682880E+02  0.00000000000E+00  0.0000E+00  9.0
      -11   -1    0    0    0    0  0.00000000000E+00  0.00000000000E+00 -1.06590378560E+02  1.06590378560E+02  0.00000000000E+00  0.0000E+00  9.0
       24    2    1    2    0    0 -8.32106831432E+01 -5.22572464155E+00 -5.15309262309E+01  1.27069985524E+02  8.08703831792E+01  4.3998E-14  9.0
      -24    2    1    2    0    0  8.32106831432E+01  5.22572464155E+00  1.73296230550E+02  2.07876075915E+02  7.89275200905E+01  6.8392E-14  9.0
       -1    1    3    3    0  500 -3.23797379971E+01  2.60615172692E+01 -5.30111998387E+01  6.73634724719E+01  0.00000000000E+00  0.0000E+00  9.0
        2    1    3    3  500    0 -5.08309451461E+01 -3.12872419107E+01  1.48027360788E+00  5.97065130516E+01  0.00000000000E+00  0.0000E+00  9.0
        1    1    4    4  504    0  8.82126182091E+01 -1.85515561569E+01  1.29370806753E+02  1.57678254325E+02  0.00000000000E+00  0.0000E+00  9.0
       -2    1    4    4    0  504 -5.00193506586E+00  2.37772807984E+01  4.39254237970E+01  5.01978215894E+01  0.00000000000E+00  0.0000E+00  9.0
</event>
<event>
 8    1   5.1859766E+00   3.4320000E+02  -1.0000000E+00   9.7850000E-02
       11   -1    0    0    0    0  0.00000000000E+00  0.00000000000E+00  1.32923114120E+02  1.32923114120E+02  0.00000000000E+00  0.0000E+00  9.0
      -11   -1    0    0    0    0  0.00000000000E+00  0.00000000000E+00 -2.21570495510E+02  2.21570495510E+02  0.00000000000E+00  0.0000E+00  9.0
       24    2    1    2    0    0  1.90380000928E+01 -2.51178444039E+01 -1.91696070869E+02  2.19981372178E+02  1.03204016219E+02  1.1520E-14  9.0
      -24    2    1    2    0    0 -1.90380000928E+01  2.51178444039E+01  1.03048689479E+02  1.34512237449E+02  8.05056399591E+01  2.8214E-13  9.0
       -1    1    3    3    0  500 -1.46204638410E+00  3.68602970693E+01 -3.78246802727E+01  5.28348892059E+01  0.00000000000E+00  0.0000E+00  9.0
        2    1    3    3  500    0  2.05000464769E+01 -6.19781414731E+01 -1.53871390596E+02  1.67146482973E+02  0.00000000000E+00  0.0000E+00  9.0
        3    1    4    4  504    0  1.22624009102E+01  1.70549252542E+01  9.98400447288E+01  1.02025837330E+02  0.00000000000E+00  0.0000E+00  9.0
       -4    1    4    4    0  504 -3.13004010031E+01  8.06291914970E+00  3.20864475037E+00  3.24864001190E+01  5.87386917370E-01  0.0000E+00  9.0
</event>
<event>
 8    1   5.1859766E+00   4.2810000E+02  -1.0000000E+00   9.5240000E-02
       11   -1    0    0    0    0  0.00000000000E+00  0.00000000000E+00  1.89654736400E+02  1.89654736400E+02  0.00000000000E+00  0.0000E+00  9.0
      -11   -1    0    0    0    0  0.00000000000E+00  0.00000000000E+00 -2.41568074880E+02  2.41568074880E+02  0.00000000000E+00  0.0000E+00  9.0
       24    2    1    2    0    0  2.72798968945E+01  9.39238705596E+01 -2.00050338228E+02  2.36610370115E+02  7.99902693149E+01  4.7591E-15  9.0
      -24    2    1    2    0    0 -2.72798968945E+01 -9.39238705596E+01  1.48136999748E+02  1.94612441158E+02  7.97718328954E+01  9.1737E-15  9.0
       -1    1    3    3    0  500  1.54479369308E+01  9.33562710231E+01 -1.07124051734E+02  1.42932132688E+02  0.00000000000E+00  0.0000E+00  9.0
        2    1    3    3  500    0  1.18319599637E+01  5.67599536545E-01 -9.29262864939E+01  9.36782374266E+01  0.00000000000E+00  0.0000E+00  9.0
        1    1    4    4  504    0  6.61393103228E+00 -5.73378342298E+01  1.28764940972E+02  1.41109111476E+02  0.00000000000E+00  0.0000E+00  9.0
       -2    1    4    4    0  504 -3.38938279268E+01 -3.65860363299E+01  1.93720587762E+01  5.35033296822E+01  0.00000000000E+00  0.0000E+00  9.0
</event>
<event>
 8    1   5.1859766E+00   5.0000000E+02  -1.0000000E+00   9.3490000E-02
       11   -1    0    0    0    0  0.00000000000E+00  0.00000000000E+00  2.49992972390E+02  2.49992972390E+02  0.00000000000E+00  0.0000E+00  9.0
      -11   -1    0    0    0    0  0.00000000000E+00  0.00000000000E+00 -2.49999998840E+02  2.49999998840E+02  0.00000000000E+00  0.0000E+00  9.0
       24    2    1    2    0    0  6.83473680556E+01 -8.97933418796E+01 -2.08400626632E+02  2.50042424977E+02  7.97256931098E+01  1.0421E-13  9.0
      -24    2    1    2    0    0 -6.83473680556E+01  8.97933418796E+01  2.08393600182E+02  2.49950546249E+02  7.94554970218E+01  2.8631E-14  9.0
       -3    1    3    3    0  500  6.67958465730E+01 -2.19602379887E+01 -1.05479808155E+02  1.26767216189E+02  0.00000000000E+00  0.0000E+00  9.0
        4    1    3    3  500    0  1.55152148261E+00 -6.78331038908E+01 -1.02920818477E+02  1.23275208788E+02  5.87386917370E-01  0.0000E+00  9.0
        1    1    4    4  504    0  1.61667922478E+01  2.45721806007E+00  2.13912609359E+01  2.69256223068E+01  0.00000000000E+00  0.0000E+00  9.0
       -2    1    4    4    0  504 -8.45141603035E+01  8.73361238195E+01  1.87002339246E+02  2.23024923942E+02  0.00000000000E+00  0.0000E+00  9.0
</event>
<event>
 8    1   5.1859766E+00   4.9460000E+02  -1.0000000E+00   9.3610000E-02
       11   -1    0    0    0    0  0.00000000000E+00  0.00000000000E+00  2.44657077330E+02  2.44657077330E+02  0.00000000000E+00  0.0000E+00  9.0
      -11   -1    0    0    0    0  0.00000000000E+00  0.00000000000E+00 -2.49942652430E+02  2.49942652430E+02  0.00000000000E+00  0.0000E+00  9.0
       24    2    1    2    0    0  3.96552311666E+01 -5.24623549463E+01 -2.26381135460E+02  2.49777546274E+02  8.25564539266E+01  8.0706E-14  9.0
      -24    2    1    2    0    0 -3.96552311666E+01  5.24623549463E+01  2.21095560360E+02  2.44822183484E+02  8.20354720191E+01  2.4631E-13  9.0
       -1    1    3    3    0  500  3.72034468134E+01 -2.33162319593E+01 -3.49318034174E+01  5.61068090125E+01  0.00000000000E+00  0.0000E+00  9.0
        2    1    3    3  500    0  2.45178435317E+00 -2.91461229870E+01 -1.91449332043E+02  1.93670737261E+02  0.00000000000E+00  0.0000E+00  9.0
        3    1    4    4  504    0 -5.65777113272E+01  1.51007474771E+01  1.66753101357E+02  1.76736150251E+02  0.00000000000E+00  0.0000E+00  9.0
       -4    1    4    4    0  504  1.69224801606E+01  3.73616074692E+01  5.43424590034E+01  6.80860332329E+01  5.87386917370E-01  0.0000E+00  9.0
</event>
<event>
 8    1   5.1859766E+00   4.8710000E+02  -1.0000000E+00   9.3780000E-02
       11   -1    0    0    0    0  0.00000000000E+00  0.00000000000E+00  2.48275509600E+02  2.48275509600E+02  0.00000000000E+00  0.0000E+00  9.0
      -11   -1    0    0    0    0  0.00000000000E+00  0.00000000000E+00 -2.38881231050E+02  2.38881231050E+02  0.00000000000E+00  0.0000E+00  9.0
       24    2    1    2    0    0  1.37818626882E+02 -1.79351620097E+02  4.71024476465E+01  2.44541373911E+02  8.01303028387E+01  7.7456E-14  9.0
      -24    2    1    2    0    0 -1.37818626882E+02  1.79351620097E+02 -3.77081691025E+01  2.42615366745E+02  7.92422401035E+01  5.9683E-14  9.0
       -3    1    3    3    0  500  8.78619407638E+01 -1.31795672083E+02 -4.40120564095E+00  1.58458797249E+02  0.00000000000E+00  0.0000E+00  9.0
        4    1    3    3  500    0  4.99566861184E+01 -4.75559480141E+01  5.15036532874E+01  8.60825766622E+01  5.87386917370E-01  0.0000E+00  9.0
        1    1    4    4  504    0 -8.40365488420E+01  5.20874473077E+01  1.90049976669E+00  9.88880963902E+01  0.00000000000E+00  0.0000E+00  9.0
       -2    1    4    4    0  504 -5.37820780402E+01  1.27264172789E+02 -3.96086688692E+01  1.43727270355E+02  0.00000000000E+00  0.0000E+00  9.0
</event>
<event>
 8    1   5.1859766E+00   5.0000000E+02  -1.0000000E+00   9.3490000E-02
       11   -1    0    0    0    0  0.00000000000E+00  0.00000000000E+00  2.49999999990E+02  2.49999999990E+02  0.00000000000E+00  0.0000E+00  9.0
      -11   -1    0    0    0    0  0.00000000000E+00  0.00000000000E+00 -2.49999999990E+02  2.49999999990E+02  0.00000000000E+00  0.0000E+00  9.0
       24    2    1    2    0    0 -6.31009598410E+01 -1.11498119278E+02 -2.00030953610E+02  2.48824239427E+02  7.40780533548E+01  1.3181E-13  9.0
      -24    2    1    2    0    0  6.31009598410E+01  1.11498119278E+02  2.00030953600E+02  2.51175760551E+02  8.16291526048E+01  1.1544E-13  9.0
       -1    1    3    3    0  500 -7.74002662168E+01 -8.27263878229E+01 -1.34601369811E+02  1.75931762930E+02  0.00000000000E+00  0.0000E+00  9.0
        2    1    3    3  500    0  1.42993063758E+01 -2.87717314556E+01 -6.54295837984E+01  7.28924764967E+01  0.00000000000E+00  0.0000E+00  9.0
        3    1    4    4  504    0  5.48462263426E+01  3.30891846262E+01  1.33265356703E+02  1.47860265049E+02  0.00000000000E+00  0.0000E+00  9.0
       -4    1    4    4    0  504  8.25473349839E+00  7.84089346523E+01  6.67655968964E+01  1.03315495502E+02  5.87386917370E-01  0.0000E+00  9.0
</event>
<event>
 8    1   5.1859766E+00   4.9550000E+02  -1.0000000E+00   9.3590000E-02
       11   -1    0    0    0    0  0.00000000000E+00  0.00000000000E+00  2.45558484320E+02  2.45558484320E+02  0.00000000000E+00  0.0000E+00  9.0
      -11   -1    0    0    0    0  0.00000000000E+00  0.00000000000E+00 -2.49999885940E+02  2.49999885940E+02  0.00000000000E+00  0.0000E+00  9.0
       24    2    1    2    0    0 -6.54335934160E+01 -1.07749609247E+01 -2.28427877143E+02  2.50614907532E+02  7.89359353577E+01  7.5585E-14  9.0
      -24    2    1    2    0    0  6.54335934160E+01  1.07749609247E+01  2.23986475523E+02  2.44943462720E+02  7.36865237465E+01  9.6805E-15  9.0
       -1    1    3    3    0  500  9.03607878174E+00 -1.24801507018E+01 -6.86967757873E+00  1.68700133766E+01  0.00000000000E+00  0.0000E+00  9.0
        2    1    3    3  500    0 -7.44696721978E+01  1.70518977711E+00 -2.21558199565E+02  2.33744894155E+02  0.00000000000E+00  0.0000E+00  9.0
       13    1    4    4    0    0  1.65847160004E+01 -3.04967865283E+01  6.77582159694E+01  7.61333947569E+01  1.05700000000E-01  0.0000E+00  9.0
      -14    1    4    4    0    0  4.88488774156E+01  4.12717474530E+01  1.56228259554E+02  1.68810067964E+02  0.00000000000E+00  0.0000E+00  9.0
</event>
<event>
 8    1   5.1859766E+00   5.0000000E+02  -1.0000000E+00   9.3490000E-02
       11   -1    0    0    0    0  0.00000000000E+00  0.00000000000E+00  2.49999999000E+02  2.49999999000E+02  0.00000000000E+00  0.0000E+00  9.0
      -11   -1    0    0    0    0  0.00000000000E+00  0.00000000000E+00 -2.49999999950E+02  2.49999999950E+02  0.00000000000E+00  0.0000E+00  9.0
       24    2    1    2    0    0  4.17246914674E+01  1.17696627718E+01 -2.32046569435E+02  2.49635634265E+02  8.11964572417E+01  8.1499E-14  9.0
      -24    2    1    2    0    0 -4.17246914674E+01 -1.17696627718E+01  2.32046568485E+02  2.50364364686E+02  8.34100133030E+01  2.1029E-14  9.0
       -1    1    3    3    0  500  3.93100326735E+01  4.40350821775E+01 -1.63695556862E+02  1.74013224978E+02  0.00000000000E+00  0.0000E+00  9.0
        2    1    3    3  500    0  2.41465879389E+00 -3.22654194057E+01 -6.83510125733E+01  7.56224092866E+01  0.00000000000E+00  0.0000E+00  9.0
        1    1    4    4  504    0 -4.25373817341E+01  2.66144760698E+01  1.71340195874E+02  1.78536332166E+02  0.00000000000E+00  0.0000E+00  9.0
       -2    1    4    4    0  504  8.12690266682E-01 -3.83841388416E+01  6.07063726110E+01  7.18280325198E+01  0.00000000000E+00  0.0000E+00  9.0
</event>
<event>
 8    1   5.1859766E+00   4.9140000E+02  -1.0000000E+00   9.3680000E-02
       11   -1    0    0    0    0  0.00000000000E+00  0.00000000000E+00  2.50000000000E+02  2.50000000000E+02  0.00000000000E+00  0.0000E+00  9.0
      -11   -1    0    0    0    0  0.00000000000E+00  0.00000000000E+00 -2.41429737510E+02  2.41429737510E+02  0.00000000000E+00  0.0000E+00  9.0
       24    2    1    2    0    0 -1.51714813776E+01  8.67818172431E+01 -2.10085726446E+02  2.42027448465E+02  8.17313630306E+01  1.3848E-14  9.0
      -24    2    1    2    0    0  1.51714813776E+01 -8.67818172431E+01  2.18655988936E+02  2.49402289050E+02  8.14235999850E+01  1.8146E-14  9.0
       -3    1    3    3    0  500 -4.14930059401E+01  3.09001402391E+01 -1.36353838328E+02  1.45838463498E+02  0.00000000000E+00  0.0000E+00  9.0
        4    1    3    3  500    0  2.63215245625E+01  5.58816770040E+01 -7.37318881181E+01  9.61889849667E+01  5.87386917370E-01  0.0000E+00  9.0
        1    1    4    4  504    0  2.73666877472E+01 -4.60423682908E+01  1.91725657209E+02  1.99066729787E+02  0.00000000000E+00  0.0000E+00  9.0
       -2    1    4    4    0  504 -1.21952063696E+01 -4.07394489523E+01  2.69303317272E+01  5.03355592625E+01  0.00000000000E+00  0.0000E+00  9.0
</event>
<event>
 8    1   5.1859766E+00   4.9880000E+02  -1.0000000E+00   9.3520000E-02
       11   -1    0    0    0    0  0.00000000000E+00  0.00000000000E+00  2.48801295240E+02  2.48801295240E+02  0.00000000000E+00  0.0000E+00  9.0
      -11   -1    0    0    0    0  0.00000000000E+00  0.00000000000E+00 -2.50000000000E+02  2.50000000000E+02  0.00000000000E+00  0.0000E+00  9.0
       24    2    1    2    0    0  1.88116912683E+01 -8.10198929996E+00 -2.35751442785E+02  2.50042076283E+02  8.07636996300E+01  1.4866E-13  9.0
      -24    2    1    2    0    0 -1.88116912683E+01  8.10198929996E+00  2.34552738025E+02  2.48759218963E+02  8.02909717545E+01  2.2076E-13  9.0
       -3    1    3    3    0  500  4.16091413472E+01 -2.78310606776E+01 -1.77827500172E+02  1.84739027819E+02  0.00000000000E+00  0.0000E+00  9.0
        4    1    3    3  500    0 -2.27974500789E+01  1.97290713776E+01 -5.79239426129E+01  6.53030484643E+01  5.87386917370E-01  0.0000E+00  9.0
        1    1    4    4  504    0 -4.80244379954E+01 -9.21643240829E+00  1.37806854177E+02  1.46225915382E+02  0.00000000000E+00  0.0000E+00  9.0
       -2    1    4    4    0  504  2.92127467272E+01  1.73184217082E+01  9.67458838471E+01  1.02533303581E+02  0.00000000000E+00  0.0000E+00  9.0
</event>
<event>
 8    1   5.1859766E+00   4.9980000E+02  -1.0000000E+00   9.3500000E-02
       11   -1    0    0    0    0  0.00000000000E+00  0.00000000000E+00  2.49999994480E+02  2.49999994480E+02  0.00000000000E+00  0.0000E+00  9.0
      -11   -1    0    0    0    0  0.00000000000E+00  0.00000000000E+00 -2.49760875660E+02  2.49760875660E+02  0.00000000000E+00  0.0000E+00  9.0
       24    2    1    2    0    0  1.31076473167E+01  4.72078675145E+01 -2.31352863531E+02  2.49921646398E+02  8.08473172158E+01  2.7725E-14  9.0
      -24    2    1    2    0    0 -1.31076473167E+01 -4.72078675145E+01  2.31591982351E+02  2.49839223740E+02  7.99024296024E+01  2.6629E-14  9.0
       -1    1    3    3    0  500  3.71072941037E+01 -6.17052104966E-01 -1.31482747560E+02  1.36620075153E+02  0.00000000000E+00  0.0000E+00  9.0
        2    1    3    3  500    0 -2.39996467869E+01  4.78249196194E+01 -9.98701159713E+01  1.13301571245E+02  0.00000000000E+00  0.0000E+00  9.0
        1    1    4    4  504    0  3.94058907034E+00 -1.75866897575E+01  2.06881386189E+02  2.07664941312E+02  0.00000000000E+00  0.0000E+00  9.0
       -2    1    4    4    0  504 -1.70482363871E+01 -2.96211777570E+01  2.47105961625E+01  4.21742824281E+01  0.00000000000E+00  0.0000E+00  9.0
</event>
<event>
 8    1   5.1859766E+00   4.8770000E+02  -1.0000000E+00   9.3770000E-02
       11   -1    0    0    0    0  0.00000000000E+00  0.00000000000E+00  2.49914309740E+02  2.49914309740E+02  0.00000000000E+00  0.0000E+00  9.0
      -11   -1    0    0    0    0  0.00000000000E+00  0.00000000000E+00 -2.37917822760E+02  2.37917822760E+02  0.00000000000E+00  0.0000E+00  9.0
       24    2    1    2    0    0 -2.55152506885E+00  7.84968724893E+00 -2.23172108182E+02  2.37546736335E+02  8.09600778336E+01  2.4777E-14  9.0
      -24    2    1    2    0    0  2.55152506885E+00 -7.84968724893E+00  2.35168595172E+02  2.50285396170E+02  8.52665439126E+01  4.0055E-13  9.0
       -3    1    3    3    0  500  2.80052740765E+01  2.80971560389E+01 -1.56610660019E+02  1.61556938524E+02  0.00000000000E+00  0.0000E+00  9.0
        4    1    3    3  500    0 -3.05567991454E+01 -2.02474687900E+01 -6.65614481626E+01  7.59897978107E+01  5.87386917370E-01  0.0000E+00  9.0
       13    1    4    4    0    0 -1.93902176565E+00 -5.13035552216E+00  2.41780556552E+02  2.41842777548E+02  1.05700000000E-01  0.0000E+00  9.0
      -14    1    4    4    0    0  4.49054683449E+00 -2.71933172677E+00 -6.61196137968E+00  8.44261862217E+00  0.00000000000E+00  0.0000E+00  9.0
</event>
<event>
 8    1   5.1859766E+00   5.0000000E+02  -1.0000000E+00   9.3490000E-02
       11   -1    0    0    0    0  0.00000000000E+00  0.00000000000E+00  2.49999992250E+02  2.49999992250E+02  0.00000000000E+00  0.0000E+00  9.0
      -11   -1    0    0    0    0  0.00000000000E+00  0.00000000000E+00 -2.50000000000E+02  2.50000000000E+02  0.00000000000E+00  0.0000E+00  9.0
       24    2    1    2    0    0  1.72198360489E+01 -9.94605008371E+00 -2.35217518364E+02  2.49945109889E+02  8.21573511413E+01  7.1798E-14  9.0
      -24    2    1    2    0    0 -1.72198360489E+01  9.94605008371E+00  2.35217510604E+02  2.50054882359E+02  8.24907281530E+01  1.1996E-13  9.0
       -1    1    3    3    0  500  1.23570559847E+01  3.58899666763E+01 -1.19574714828E+02  1.25454768610E+02  0.00000000000E+00  0.0000E+00  9.0
        2    1    3    3  500    0  4.86278006428E+00 -4.58360167600E+01 -1.15642803536E+02  1.24490341280E+02  0.00000000000E+00  0.0000E+00  9.0
       13    1    4    4    0    0 -2.77283095450E+01 -1.83050025927E+01  3.77042597527E+01  5.02548967378E+01  1.05700000000E-01  0.0000E+00  9.0
      -14    1    4    4    0    0  1.05084734960E+01  2.82510526764E+01  1.97513250851E+02  1.99799985622E+02  0.00000000000E+00  0.0000E+00  9.0
</event>
<event>
 8    1   5.1859766E+00   3.6570000E+02  -1.0000000E+00   9.7090000E-02
       11   -1    0    0    0    0  0.00000000000E+00  0.00000000000E+00  1.33709695400E+02  1.33709695400E+02  0.00000000000E+00  0.0000E+00  9.0
      -11   -1    0    0    0    0  0.00000000000E+00  0.00000000000E+00 -2.50000000000E+02  2.50000000000E+02  0.00000000000E+00  0.0000E+00  9.0
       24    2    1    2    0    0  1.28832903129E+01  2.84954591285E+01 -2.26711321560E+02  2.42665271885E+02  8.06873007048E+01  1.5621E-13  9.0
      -24    2    1    2    0    0 -1.28832903129E+01 -2.84954591285E+01  1.10421016960E+02  1.41044423524E+02  8.19924268472E+01  5.1456E-14  9.0
       -3    1    3    3    0  500  2.52735501224E+01  8.71633972415E+00 -2.14796473301E+02  2.16453809984E+02  0.00000000000E+00  0.0000E+00  9.0
        4    1    3    3  500    0 -1.23902598094E+01  1.97791194044E+01 -1.19148482597E+01  2.62114619012E+01  5.87386917370E-01  0.0000E+00  9.0
        3    1    4    4  504    0 -3.39239596197E+01 -1.84927894926E+01  1.28331957074E+01  4.07125191011E+01  0.00000000000E+00  0.0000E+00  9.0
       -4    1    4    4    0  504  2.10406693068E+01 -1.00026696360E+01  9.75878212530E+01  1.00331904422E+02  5.87386917370E-01  0.0000E+00  9.0
</event>
<event>
 8    1   5.1859766E+00   4.2390000E+02  -1.0000000E+00   9.5350000E-02
       11   -1    0    0    0    0  0.00000000000E+00  0.00000000000E+00  2.45228232470E+02  2.45228232470E+02  0.00000000000E+00  0.0000E+00  9.0
      -11   -1    0    0    0    0  0.00000000000E+00  0.00000000000E+00 -1.83186918360E+02  1.83186918360E+02  0.00000000000E+00  0.0000E+00  9.0
       24    2    1    2    0    0 -3.58608907048E+01  2.38577043083E+01 -1.62550417396E+02  1.86513355942E+02  8.06808540619E+01  2.0036E-13  9.0
      -24    2    1    2    0    0  3.58608907048E+01 -2.38577043083E+01  2.24591731506E+02  2.41901794895E+02  7.88659557464E+01  6.2164E-14  9.0
       -1    1    3    3    0  500  2.35049296465E+00 -2.69467802840E+01 -6.06691561845E+01  6.64259007992E+01  0.00000000000E+00  0.0000E+00  9.0
        2    1    3    3  500    0 -3.82113836695E+01  5.08044845924E+01 -1.01881261211E+02  1.20087455143E+02  0.00000000000E+00  0.0000E+00  9.0
        1    1    4    4  504    0  2.95495718967E+01 -2.53161877859E+01  3.54166112506E+01  5.26158048096E+01  0.00000000000E+00  0.0000E+00  9.0
       -2    1    4    4    0  504  6.31131880816E+00  1.45848347757E+00  1.89175120255E+02  1.89285990086E+02  0.00000000000E+00  0.0000E+00  9.0
</event>
<event>
 8    1   5.1859766E+00   4.9220000E+02  -1.0000000E+00   9.3660000E-02
       11   -1    0    0    0    0  0.00000000000E+00  0.00000000000E+00  2.49999983750E+02  2.49999983750E+02  0.00000000000E+00  0.0000E+00  9.0
      -11   -1    0    0    0    0  0.00000000000E+00  0.00000000000E+00 -2.42293235740E+02  2.42293235740E+02  0.00000000000E+00  0.0000E+00  9.0
       24    2    1    2    0    0 -4.71789958196E+00  3.48422264218E+01 -2.26161166235E+02  2.42410614996E+02  7.98610908483E+01  9.8924E-14  9.0
      -24    2    1    2    0    0  4.71789958196E+00 -3.48422264218E+01  2.33867914245E+02  2.49882604493E+02  8.06899956388E+01  9.3390E-14  9.0
       -1    1    3    3    0  500  3.09769988498E+01 -6.52283041221E+00 -1.00971895417E+02  1.05817982586E+02  0.00000000000E+00  0.0000E+00  9.0
        2    1    3    3  500    0 -3.56948984318E+01  4.13650568340E+01 -1.25189270818E+02  1.36592632410E+02  0.00000000000E+00  0.0000E+00  9.0
        3    1    4    4  504    0  2.38580665901E+01 -5.22308510700E+01  1.94323370357E+02  2.02629813729E+02  0.00000000000E+00  0.0000E+00  9.0
       -4    1    4    4    0  504 -1.91401670082E+01  1.73886246482E+01  3.95445438883E+01  4.72527907639E+01  5.87386917370E-01  0.0000E+00  9.0
</event>
<event>
 8    1   5.1859766E+00   4.9850000E+02  -1.0000000E+00   9.3520000E-02
       11   -1    0    0    0    0  0.00000000000E+00  0.00000000000E+00  2.48541591060E+02  2.48541591060E+02  0.00000000000E+00  0.0000E+00  9.0
      -11   -1    0    0    0    0  0.00000000000E+00  0.00000000000E+00 -2.49999998180E+02  2.49999998180E+02  0.00000000000E+00  0.0000E+00  9.0
       24    2    1    2    0    0  4.12349716904E+01 -2.94763259588E+00 -2.32457726069E+02  2.49860328914E+02  8.17592693679E+01  2.1452E-14  9.0
      -24    2    1    2    0    0 -4.12349716904E+01  2.94763259588E+00  2.30999318949E+02  2.48681260322E+02  8.22962481069E+01  1.2287E-13  9.0
       -1    1    3    3    0  500  5.20688643101E+01 -2.33227822011E+01 -9.76824314412E+01  1.13123720821E+02  0.00000000000E+00  0.0000E+00  9.0
        2    1    3    3  500    0 -1.08338926196E+01  2.03751496052E+01 -1.34775294628E+02  1.36736608093E+02  0.00000000000E+00  0.0000E+00  9.0
        3    1    4    4  504    0  6.85194340198E-01 -3.44301617234E+01  6.70277478638E+01  7.53566487529E+01  0.00000000000E+00  0.0000E+00  9.0
       -4    1    4    4    0  504 -4.19201660306E+01  3.73777943193E+01  1.63971571085E+02  1.73324611570E+02  5.87386917370E-01  0.0000E+00  9.0
</event>
<event>
 8    1   5.1859766E+00   4.8370000E+02  -1.0000000E+00   9.3860000E-02
       11   -1    0    0    0    0  0.00000000000E+00  0.00000000000E+00  2.50000000000E+02  2.50000000000E+02  0.00000000000E+00  0.0000E+00  9.0
      -11   -1    0    0    0    0  0.00000000000E+00  0.00000000000E+00 -2.33954098720E+02  2.33954098720E+02  0.00000000000E+00  0.0000E+00  9.0
       24    2    1    2    0    0 -5.94965637935E+00 -1.88658124964E+01 -2.19119366600E+02  2.34772148986E+02  8.19350219873E+01  2.2464E-15  9.0
      -24    2    1    2    0    0  5.94965637935E+00  1.88658124964E+01  2.35165267880E+02  2.49181949737E+02  7.99851459043E+01  6.0380E-14  9.0
       -3    1    3    3    0  500  1.50555660345E+01 -2.18268325123E+01 -2.10012147990E+02  2.11679434499E+02  0.00000000000E+00  0.0000E+00  9.0
        4    1    3    3  500    0 -2.10052224139E+01  2.96102001591E+00 -9.10721860955E+00  2.30927144871E+01  5.87386917370E-01  0.0000E+00  9.0
       13    1    4    4    0    0  1.41690298923E+01  4.54779888930E+01  1.91923226182E+02  1.97746162548E+02  1.05700000000E-01  0.0000E+00  9.0
      -14    1    4    4    0    0 -8.21937351296E+00 -2.66121763966E+01  4.32420416976E+01  5.14357871884E+01  0.00000000000E+00  0.0000E+00  9.0
</event>
<event>
 8    1   5.1859766E+00   4.3410000E+02  -1.0000000E+00   9.5080000E-02
       11   -1    0    0    0    0  0.00000000000E+00  0.00000000000E+00  1.88446212100E+02  1.88446212100E+02  0.00000000000E+00  0.0000E+00  9.0
      -11   -1    0    0    0    0  0.00000000000E+00  0.00000000000E+00 -2.49999519580E+02  2.49999519580E+02  0.00000000000E+00  0.0000E+00  9.0
       24    2    1    2    0    0  5.09515661134E+01 -8.83365969761E+01 -2.08998034191E+02  2.41136705528E+02  6.37755125623E+01  2.9334E-14  9.0
      -24    2    1    2    0    0 -5.09515661134E+01  8.83365969761E+01  1.47444726701E+02  1.97309026157E+02  8.24104842620E+01  2.6845E-14  9.0
      -13    1    3    3    0    0 -3.33363930588E+00  7.38284463581E+00 -5.50076162928E+00  9.79229783709E+00  1.05700000000E-01  0.0000E+00  9.0
       14    1    3    3    0    0  5.42852054193E+01 -9.57194416119E+01 -2.03497272562E+02  2.31344407691E+02  0.00000000000E+00  0.0000E+00  9.0
        1    1    4    4  500    0  1.05237039758E+01  2.71847126615E+01  3.62937983957E+00  2.93756590714E+01  0.00000000000E+00  0.0000E+00  9.0
       -2    1    4    4    0  500 -6.14752700892E+01  6.11518843146E+01  1.43815346862E+02  1.67933367085E+02  0.00000000000E+00  0.0000E+00  9.0
</event>
<event>
 8    1   5.1859766E+00   2.7990000E+02  -1.0000000E+00   1.0040000E-01
       11   -1    0    0    0    0  0.00000000000E+00  0.00000000000E+00  2.49994926580E+02  2.49994926580E+02  0.00000000000E+00  0.0000E+00  9.0
      -11   -1    0    0    0    0  0.00000000000E+00  0.00000000000E+00 -7.83315160520E+01  7.83315160520E+01  0.00000000000E+00  0.0000E+00  9.0
       24    2    1    2    0    0 -2.83519609193E+01 -1.79873206609E+01 -1.90638499456E+01  1.18108767010E+02  1.11619322150E+02  4.2260E-14  9.0
      -24    2    1    2    0    0  2.83519609193E+01  1.79873206609E+01  1.90727260469E+02  2.10217675616E+02  8.17753377425E+01  4.9814E-14  9.0
       -3    1    3    3    0  500  4.11691076046E+01 -1.44336810960E+01  6.17421827183E+00  4.40607256206E+01  0.00000000000E+00  0.0000E+00  9.0
        4    1    3    3  500    0 -6.95210685239E+01 -3.55363956487E+00 -2.52380682174E+01  7.40480413894E+01  5.87386917370E-01  0.0000E+00  9.0
        3    1    4    4  504    0  5.02844200617E+01  9.07472582335E+00  6.70870993812E+01  8.43300210666E+01  0.00000000000E+00  0.0000E+00  9.0
       -4    1    4    4    0  504 -2.19324591424E+01  8.91259483756E+00  1.23640161087E+02  1.25887654549E+02  5.87386917370E-01  0.0000E+00  9.0
</event>
<event>
 8    1   5.1859766E+00   4.9960000E+02  -1.0000000E+00   9.3500000E-02
       11   -1    0    0    0    0  0.00000000000E+00  0.00000000000E+00  2.49555148550E+02  2.49555148550E+02  0.00000000000E+00  0.0000E+00  9.0
      -11   -1    0    0    0    0  0.00000000000E+00  0.00000000000E+00 -2.49999998200E+02  2.49999998200E+02  0.00000000000E+00  0.0000E+00  9.0
       24    2    1    2    0    0  7.47468866611E+01  2.70502867962E+01 -2.23017048464E+02  2.50075570734E+02  8.05131796104E+01  7.3897E-14  9.0
      -24    2    1    2    0    0 -7.47468866611E+01 -2.70502867962E+01  2.22572198814E+02  2.49479576017E+02  7.98928037025E+01  3.6344E-14  9.0
       -1    1    3    3    0  500  1.68285338545E+01 -2.50250944182E+01 -1.00234804012E+02  1.04673161974E+02  0.00000000000E+00  0.0000E+00  9.0
        2    1    3    3  500    0  5.79183528067E+01  5.20753812144E+01 -1.22782244452E+02  1.45402408760E+02  0.00000000000E+00  0.0000E+00  9.0
        3    1    4    4  504    0 -4.07182900631E+01  2.26807323269E+01  5.91900698536E+01  7.53382979223E+01  0.00000000000E+00  0.0000E+00  9.0
       -4    1    4    4    0  504 -3.40285965981E+01 -4.97310191231E+01  1.63382128960E+02  1.74141278095E+02  5.87386917370E-01  0.0000E+00  9.0
</event>
<event>
 8    1   5.1859766E+00   4.4540000E+02  -1.0000000E+00   9.4790000E-02
       11   -1    0    0    0    0  0.00000000000E+00  0.00000000000E+00  1.98389991590E+02  1.98389991590E+02  0.00000000000E+00  0.0000E+00  9.0
      -11   -1    0    0    0    0  0.00000000000E+00  0.00000000000E+00 -2.50000000000E+02  2.50000000000E+02  0.00000000000E+00  0.0000E+00  9.0
       24    2    1    2    0    0 -6.16225803856E+01  1.18422838231E+02 -1.82784255231E+02  2.44931803100E+02  9.35959036566E+01  1.5363E-13  9.0
      -24    2    1    2    0    0  6.16225803856E+01 -1.18422838231E+02  1.31174246821E+02  2.03458188491E+02  7.97949898589E+01  3.5435E-13  9.0
      -13    1    3    3    0    0 -8.04678060503E+01  7.79788938821E+01 -9.68616268116E+01  1.48114690773E+02  1.05700000000E-01  0.0000E+00  9.0
       14    1    3    3    0    0  1.88452256647E+01  4.04439443494E+01 -8.59226284196E+01  9.68171123274E+01  0.00000000000E+00  0.0000E+00  9.0
        1    1    4    4  500    0 -2.56921368893E+00 -7.54640162193E+01  4.57266776138E+01  8.82742751231E+01  0.00000000000E+00  0.0000E+00  9.0
       -2    1    4    4    0  500  6.41917940745E+01 -4.29588220122E+01  8.54475692074E+01  1.15183913367E+02  0.00000000000E+00  0.0000E+00  9.0
</event>
<event>
 8    1   5.1859766E+00   4.9860000E+02  -1.0000000E+00   9.3520000E-02
       11   -1    0    0    0    0  0.00000000000E+00  0.00000000000E+00  2.48606679940E+02  2.48606679940E+02  0.00000000000E+00  0.0000E+00  9.0
      -11   -1    0    0    0    0  0.00000000000E+00  0.00000000000E+00 -2.49983157690E+02  2.49983157690E+02  0.00000000000E+00  0.0000E+00  9.0
       24    2    1    2    0    0 -4.15014693904E+00  6.56544667526E+01 -2.29494587353E+02  2.51826966662E+02  8.01331566211E+01  2.6827E-14  9.0
      -24    2    1    2    0    0  4.15014693904E+00 -6.56544667526E+01  2.28118109613E+02  2.46762870972E+02  6.72778554416E+01  1.1546E-13  9.0
       -3    1    3    3    0  500 -3.87898780716E+01  1.39424895924E+01 -9.94356624657E+01  1.07640599343E+02  0.00000000000E+00  0.0000E+00  9.0
        4    1    3    3  500    0  3.46397311325E+01  5.17119771603E+01 -1.30058924887E+02  1.44186367320E+02  5.87386917370E-01  0.0000E+00  9.0
        3    1    4    4  504    0 -1.14396726605E+00 -6.19551333030E+01  2.31358597091E+02  2.39513147137E+02  0.00000000000E+00  0.0000E+00  9.0
       -4    1    4    4    0  504  5.29411420509E+00 -3.69933344966E+00 -3.24048747838E+00  7.24972383451E+00  5.87386917370E-01  0.0000E+00  9.0
</event>
<event>
 8    1   5.1859766E+00   4.9790000E+02  -1.0000000E+00   9.3540000E-02
       11   -1    0    0    0    0  0.00000000000E+00  0.00000000000E+00  2.49999999970E+02  2.49999999970E+02  0.00000000000E+00  0.0000E+00  9.0
      -11   -1    0    0    0    0  0.00000000000E+00  0.00000000000E+00 -2.47906269710E+02  2.47906269710E+02  0.00000000000E+00  0.0000E+00  9.0
       24    2    1    2    0    0  2.02078652966E+02 -5.00893040524E+01 -1.10588953307E+02  2.48738123718E+02  7.93474462861E+01  4.3586E-15  9.0
      -24    2    1    2    0    0 -2.02078652966E+02  5.00893040524E+01  1.12682683577E+02  2.49168145961E+02  7.77345317008E+01  1.0863E-13  9.0
      -13    1    3    3    0    0  6.67805768516E+01 -5.45835735051E+01 -5.56338393358E+01  1.02635993652E+02  1.05700000000E-01  0.0000E+00  9.0
       14    1    3    3    0    0  1.35298076114E+02  4.49426945267E+00 -5.49551139710E+01  1.46102130066E+02  0.00000000000E+00  0.0000E+00  9.0
       13    1    4    4    0    0 -7.42414774545E+01 -1.50165433419E+01  5.89239410500E+01  9.59652830451E+01  1.05700000000E-01  0.0000E+00  9.0
      -14    1    4    4    0    0 -1.27837175511E+02  6.51058473943E+01  5.37587425268E+01  1.53202862916E+02  0.00000000000E+00  0.0000E+00  9.0
</event>
<event>
 8    1   5.1859766E+00   3.3610000E+02  -1.0000000E+00   9.8110000E-02
       11   -1    0    0    0    0  0.00000000000E+00  0.00000000000E+00  2.49930574160E+02  2.49930574160E+02  0.00000000000E+00  0.0000E+00  9.0
      -11   -1    0    0    0    0  0.00000000000E+00  0.00000000000E+00 -1.12963734790E+02  1.12963734790E+02  0.00000000000E+00  0.0000E+00  9.0
       24    2    1    2    0    0  4.35988928809E+01 -4.25550005152E+01 -7.27117192289E+01  1.30898280523E+02  9.01974179307E+01  1.6627E-14  9.0
      -24    2    1    2    0    0 -4.35988928809E+01  4.25550005152E+01  2.09678558593E+02  2.31996028422E+02  7.83917581176E+01  4.7947E-14  9.0
       -1    1    3    3    0  500 -3.97755853026E-01  1.75803375346E+01  9.46515099895E+00  1.99703670718E+01  0.00000000000E+00  0.0000E+00  9.0
        2    1    3    3  500    0  4.39966487339E+01 -6.01353380498E+01 -8.21768702278E+01  1.10927913451E+02  0.00000000000E+00  0.0000E+00  9.0
        3    1    4    4  504    0 -4.47537565882E+01  1.34337698666E+00  5.01668446984E+01  6.72414730466E+01  0.00000000000E+00  0.0000E+00  9.0
       -4    1    4    4    0  504  1.15486370736E+00  4.12116235285E+01  1.59511713894E+02  1.64754555375E+02  5.87386917370E-01  0.0000E+00  9.0
</event>
<event>
 8    1   5.1859766E+00   4.7370000E+02  -1.0000000E+00   9.4090000E-02
       11   -1    0    0    0    0  0.00000000000E+00  0.00000000000E+00  2.49341937710E+02  2.49341937710E+02  0.00000000000E+00  0.0000E+00  9.0
      -11   -1    0    0    0    0  0.00000000000E+00  0.00000000000E+00 -2.24986402860E+02  2.24986402860E+02  0.00000000000E+00  0.0000E+00  9.0
       24    2    1    2    0    0 -2.55949218132E+01  7.80335209253E+01 -1.95771898962E+02  2.27445203208E+02  8.16109896320E+01  7.3293E-14  9.0
      -24    2    1    2    0    0  2.55949218132E+01 -7.80335209253E+01  2.20127433812E+02  2.46883137360E+02  7.58344643667E+01  2.3560E-14  9.0
       -1    1    3    3    0  500 -2.51241769431E+01  7.53784378854E+01 -8.39421422796E+01  1.15582941715E+02  0.00000000000E+00  0.0000E+00  9.0
        2    1    3    3  500    0 -4.70744870098E-01  2.65508303991E+00 -1.11829756682E+02  1.11862261493E+02  0.00000000000E+00  0.0000E+00  9.0
        1    1    4    4  504    0  4.72028039045E+01 -4.41708617851E+01  9.08084224510E+01  1.11469006075E+02  0.00000000000E+00  0.0000E+00  9.0
       -2    1    4    4    0  504 -2.16078820912E+01 -3.38626591402E+01  1.29319011361E+02  1.35414131286E+02  0.00000000000E+00  0.0000E+00  9.0
</event>
<event>
 8    1   5.1859766E+00   4.9330000E+02  -1.0000000E+00   9.3640000E-02
       11   -1    0    0    0    0  0.00000000000E+00  0.00000000000E+00  2.45679234160E+02  2.45679234160E+02  0.00000000000E+00  0.0000E+00  9.0
      -11   -1    0    0    0    0  0.00000000000E+00  0.00000000000E+00 -2.47577003730E+02  2.47577003730E+02  0.00000000000E+00  0.0000E+00  9.0
       24    2    1    2    0    0 -3.97795723397E-01  1.26482241716E+01 -2.33833638517E+02  2.47431030807E+02  7.98987402152E+01  1.7046E-13  9.0
      -24    2    1    2    0    0  3.97795723397E-01 -1.26482241716E+01  2.31935868947E+02  2.45825207089E+02  8.04714192747E+01  4.5309E-15  9.0
       -1    1    3    3    0  500  2.28224305556E+01  3.41478088573E+01 -7.53313725512E+01  8.58006519594E+01  0.00000000000E+00  0.0000E+00  9.0
        2    1    3    3  500    0 -2.32202262789E+01 -2.14995846857E+01 -1.58502265966E+02  1.61630378847E+02  0.00000000000E+00  0.0000E+00  9.0
        3    1    4    4  504    0 -3.64428825469E+01  5.06163192804E+00  1.47413287825E+02  1.51935450877E+02  0.00000000000E+00  0.0000E+00  9.0
       -4    1    4    4    0  504  3.68406782703E+01 -1.77098560997E+01  8.45225811223E+01  9.38897562115E+01  5.87386917370E-01  0.0000E+00  9.0
</event>
<event>
 8    1   5.1859766E+00   4.9920000E+02  -1.0000000E+00   9.3510000E-02
       11   -1    0    0    0    0  0.00000000000E+00  0.00000000000E+00  2.49984821670E+02  2.49984821670E+02  0.00000000000E+00  0.0000E+00  9.0
      -11   -1    0    0    0    0  0.00000000000E+00  0.00000000000E+00 -2.49256108920E+02  2.49256108920E+02  0.00000000000E+00  0.0000E+00  9.0
       24    2    1    2    0    0  2.31708354985E+01  2.97471648933E+01 -2.32993844822E+02  2.49257827961E+02  8.01345845331E+01  9.1172E-15  9.0
      -24    2    1    2    0    0 -2.31708354985E+01 -2.97471648933E+01  2.33722557562E+02  2.49983102623E+02  8.02716403651E+01  1.7460E-13  9.0
      -13    1    3    3    0    0 -2.33005794999E+00 -2.43278805624E+01 -3.69567794111E+01  4.43067676506E+01  1.05700000000E-01  0.0000E+00  9.0
       14    1    3    3    0    0  2.55008934485E+01  5.40750454557E+01 -1.96037065411E+02  2.04951060311E+02  0.00000000000E+00  0.0000E+00  9.0
       13    1    4    4    0    0  1.01810079279E+01  4.32181769369E+00 -3.87591927138E-01  1.10676298545E+01  1.05700000000E-01  0.0000E+00  9.0
      -14    1    4    4    0    0 -3.33518434264E+01 -3.40689825870E+01  2.34110149489E+02  2.38915472768E+02  0.00000000000E+00  0.0000E+00  9.0
</event>
<event>
 8    1   5.1859766E+00   4.8700000E+02  -1.0000000E+00   9.3780000E-02
       11   -1    0    0    0    0  0.00000000000E+00  0.00000000000E+00  2.45757102170E+02  2.45757102170E+02  0.00000000000E+00  0.0000E+00  9.0
      -11   -1    0    0    0    0  0.00000000000E+00  0.00000000000E+00 -2.41260344760E+02  2.41260344760E+02  0.00000000000E+00  0.0000E+00  9.0
       24    2    1    2    0    0 -2.51884672114E+01  9.67783019252E+00 -2.26474373715E+02  2.41324166331E+02  7.88580498618E+01  2.4121E-13  9.0
      -24    2    1    2    0    0  2.51884672114E+01 -9.67783019252E+00  2.30971131115E+02  2.45693280596E+02  7.93057718190E+01  2.1182E-14  9.0
       -1    1    3    3    0  500  2.10233226837E+01  2.67656377246E+01 -8.87806968031E+01  9.50809738292E+01  0.00000000000E+00  0.0000E+00  9.0
        2    1    3    3  500    0 -4.62117898951E+01 -1.70878075321E+01 -1.37693676912E+02  1.46243192502E+02  0.00000000000E+00  0.0000E+00  9.0
        1    1    4    4  504    0 -7.22875396093E+00 -9.94173792494E-02  1.99111429946E+02  1.99242631740E+02  0.00000000000E+00  0.0000E+00  9.0
       -2    1    4    4    0  504  3.24172211723E+01 -9.57841281327E+00  3.18597011695E+01  4.64506488562E+01  0.00000000000E+00  0.0000E+00  9.0
</event>
<event>
 8    1   5.1859766E+00   3.5890000E+02  -1.0000000E+00   9.7310000E-02
       11   -1    0    0    0    0  0.00000000000E+00  0.00000000000E+00  1.30778136780E+02  1.30778136780E+02  0.00000000000E+00  0.0000E+00  9.0
      -11   -1    0    0    0    0  0.00000000000E+00  0.00000000000E+00 -2.46274633850E+02  2.46274633850E+02  0.00000000000E+00  0.0000E+00  9.0
       24    2    1    2    0    0  1.33410978003E+01 -3.09175405301E+01 -2.21664473776E+02  2.38831913373E+02  8.22901252167E+01  8.6239E-14  9.0
      -24    2    1    2    0    0 -1.33410978003E+01  3.09175405301E+01  1.06167976696E+02  1.38220857256E+02  8.18503934127E+01  7.6053E-15  9.0
      -13    1    3    3    0    0 -1.66836289419E+01 -3.57373182951E+01 -1.93182226974E+02  1.97167145805E+02  1.05700000000E-01  0.0000E+00  9.0
       14    1    3    3    0    0  3.00247267422E+01  4.81977776507E+00 -2.84822468016E+01  4.16647675682E+01  0.00000000000E+00  0.0000E+00  9.0
        1    1    4    4  500    0 -1.08668774261E+01 -2.30344798684E+01  8.92753814791E+00  2.69884646689E+01  0.00000000000E+00  0.0000E+00  9.0
       -2    1    4    4    0  500 -2.47422037421E+00  5.39520203985E+01  9.72404385480E+01  1.11232392587E+02  0.00000000000E+00  0.0000E+00  9.0
</event>
<event>
 8    1   5.1859766E+00   5.0000000E+02  -1.0000000E+00   9.3490000E-02
       11   -1    0    0    0    0  0.00000000000E+00  0.00000000000E+00  2.50000000000E+02  2.50000000000E+02  0.00000000000E+00  0.0000E+00  9.0
      -11   -1    0    0    0    0  0.00000000000E+00  0.00000000000E+00 -2.49999327330E+02  2.49999327330E+02  0.00000000000E+00  0.0000E+00  9.0
       24    2    1    2    0    0 -1.82187705227E+02  7.03675122224E+01 -1.26359385225E+02  2.46829055821E+02  8.25466041132E+01  7.2047E-14  9.0
      -24    2    1    2    0    0  1.82187705227E+02 -7.03675122224E+01  1.26360057895E+02  2.53170271514E+02  9.99218466358E+01  2.4652E-13  9.0
       -3    1    3    3    0  500 -1.43710245686E+02  6.85982038023E+01 -1.33318576786E+02  2.07682910217E+02  0.00000000000E+00  0.0000E+00  9.0
        4    1    3    3  500    0 -3.84774595415E+01  1.76930842004E+00  6.95919156109E+00  3.91461456037E+01  5.87386917370E-01  0.0000E+00  9.0
        3    1    4    4  504    0  1.79493413365E+02 -6.04574423048E+01  7.98659587873E+01  2.05551840528E+02  0.00000000000E+00  0.0000E+00  9.0
       -4    1    4    4    0  504  2.69429186276E+00 -9.91006991756E+00  4.64940991077E+01  4.76184309868E+01  5.87386917370E-01  0.0000E+00  9.0
</event>
<event>
 8    1   5.1859766E+00   4.3610000E+02  -1.0000000E+00   9.5030000E-02
       11   -1    0    0    0    0  0.00000000000E+00  0.00000000000E+00  2.07621048410E+02  2.07621048410E+02  0.00000000000E+00  0.0000E+00  9.0
      -11   -1    0    0    0    0  0.00000000000E+00  0.00000000000E+00 -2.28955743500E+02  2.28955743500E+02  0.00000000000E+00  0.0000E+00  9.0
       24    2    1    2    0    0  5.47216756204E+00  7.39714347689E+01 -2.00309336215E+02  2.27041274374E+02  7.69557815566E+01  1.4550E-15  9.0
      -24    2    1    2    0    0 -5.47216756204E+00 -7.39714347689E+01  1.78974641115E+02  2.09535517539E+02  7.98216334617E+01  1.4618E-13  9.0
       -3    1    3    3    0  500  3.71099147701E+01  2.92990298270E+01 -5.97314155443E+01  7.61801872272E+01  0.00000000000E+00  0.0000E+00  9.0
        4    1    3    3  500    0 -3.16377472081E+01  4.46724049418E+01 -1.40577920670E+02  1.50861087147E+02  5.87386917370E-01  0.0000E+00  9.0
        3    1    4    4  504    0  1.76570818410E+01 -8.04166430363E-01  3.50495002502E+00  1.80195420992E+01  0.00000000000E+00  0.0000E+00  9.0
       -4    1    4    4    0  504 -2.31292494030E+01 -7.31672683385E+01  1.75469691090E+02  1.91515975440E+02  5.87386917370E-01  0.0000E+00  9.0
</event>
<event>
 8    1   5.1859766E+00   4.8090000E+02  -1.0000000E+00   9.3920000E-02
       11   -1    0    0    0    0  0.00000000000E+00  0.00000000000E+00  2.49999891210E+02  2.49999891210E+02  0.00000000000E+00  0.0000E+00  9.0
      -11   -1    0    0    0    0  0.00000000000E+00  0.00000000000E+00 -2.31297423470E+02  2.31297423470E+02  0.00000000000E+00  0.0000E+00  9.0
       24    2    1    2    0    0  4.60706311229E+00 -1.93472828343E+01 -2.15598563671E+02  2.33016174083E+02  8.61292885350E+01  7.5480E-14  9.0
      -24    2    1    2    0    0 -4.60706311229E+00  1.93472828343E+01  2.34301031411E+02  2.48281140596E+02  7.96932184818E+01  2.0697E-13  9.0
       -1    1    3    3    0  500  3.11373400701E+01 -2.43075158202E+01 -1.95274144885E+02  1.99229468032E+02  0.00000000000E+00  0.0000E+00  9.0
        2    1    3    3  500    0 -2.65302769579E+01  4.96023298591E+00 -2.03244187864E+01  3.37867060505E+01  0.00000000000E+00  0.0000E+00  9.0
        1    1    4    4  504    0 -1.37209796960E+01  2.69097704032E+01  2.34499144585E+02  2.36436566203E+02  0.00000000000E+00  0.0000E+00  9.0
       -2    1    4    4    0  504  9.11391658374E+00 -7.56248756890E+00 -1.98113173792E-01  1.18445743931E+01  0.00000000000E+00  0.0000E+00  9.0
</event>
<event>
 8    1   5.1859766E+00   4.7530000E+02  -1.0000000E+00   9.4060000E-02
       11   -1    0    0    0    0  0.00000000000E+00  0.00000000000E+00  2.49972638350E+02  2.49972638350E+02  0.00000000000E+00  0.0000E+00  9.0
      -11   -1    0    0    0    0  0.00000000000E+00  0.00000000000E+00 -2.25898570620E+02  2.25898570620E+02  0.00000000000E+00  0.0000E+00  9.0
       24    2    1    2    0    0  2.15843070159E+02 -2.12179758020E+01 -4.43957592136E+01  2.35317733946E+02  7.97810694353E+01  1.7655E-14  9.0
      -24    2    1    2    0    0 -2.15843070159E+02  2.12179758020E+01  6.84698269496E+01  2.40553475018E+02  7.83544747142E+01  6.5305E-14  9.0
       -1    1    3    3    0  500  1.32620576007E+02  2.62018596088E+01 -2.97696694263E+01  1.38423220036E+02  0.00000000000E+00  0.0000E+00  9.0
        2    1    3    3  500    0  8.32224941524E+01 -4.74198354108E+01 -1.46260897873E+01  9.68945139098E+01  0.00000000000E+00  0.0000E+00  9.0
        1    1    4    4  504    0  4.98547220640E+00  7.65917308823E+00  7.14807749057E-01  9.16672327685E+00  0.00000000000E+00  0.0000E+00  9.0
       -2    1    4    4    0  504 -2.20828542366E+02  1.35588027138E+01  6.77550192005E+01  2.31386751741E+02  0.00000000000E+00  0.0000E+00  9.0
</event>
<event>
 8    1   5.1859766E+00   4.7470000E+02  -1.0000000E+00   9.4070000E-02
       11   -1    0    0    0    0  0.00000000000E+00  0.00000000000E+00  2.39374573700E+02  2.39374573700E+02  0.00000000000E+00  0.0000E+00  9.0
      -11   -1    0    0    0    0  0.00000000000E+00  0.00000000000E+00 -2.35367694230E+02  2.35367694230E+02  0.00000000000E+00  0.0000E+00  9.0
       24    2    1    2    0    0  2.52929391239E+01  1.22496445146E+02 -1.82635065908E+02  2.35447868830E+02  8.02185751216E+01  1.1181E-13  9.0
      -24    2    1    2    0    0 -2.52929391239E+01 -1.22496445146E+02  1.86641945378E+02  2.39294399108E+02  8.23497530467E+01  2.3202E-13  9.0
      -13    1    3    3    0    0  3.82357080326E+01  9.61346242845E+01 -8.62739406176E+01  1.34710947429E+02  1.05700000000E-01  0.0000E+00  9.0
       14    1    3    3    0    0 -1.29427689088E+01  2.63618208619E+01 -9.63611252902E+01  1.00736921401E+02  0.00000000000E+00  0.0000E+00  9.0
       13    1    4    4    0    0 -4.14180276500E+01 -1.26072170580E+02  1.71849545920E+02  2.17121907726E+02  1.05700000000E-01  0.0000E+00  9.0
      -14    1    4    4    0    0  1.61250885261E+01  3.57572543367E+00  1.47923994581E+01  2.21724913819E+01  0.00000000000E+00  0.0000E+00  9.0
</event>
<event>
 8    1   5.1859766E+00   4.6510000E+02  -1.0000000E+00   9.4300000E-02
       11   -1    0    0    0    0  0.00000000000E+00  0.00000000000E+00  2.49999999990E+02  2.49999999990E+02  0.00000000000E+00  0.0000E+00  9.0
      -11   -1    0    0    0    0  0.00000000000E+00  0.00000000000E+00 -2.16310435180E+02  2.16310435180E+02  0.00000000000E+00  0.0000E+00  9.0
       24    2    1    2    0    0  3.65686990059E+01 -3.09031388489E+01 -1.96773263744E+02  2.18441452003E+02  8.18820913957E+01  5.8228E-14  9.0
      -24    2    1    2    0    0 -3.65686990059E+01  3.09031388489E+01  2.30462828544E+02  2.47868983165E+02  7.76765327319E+01  4.0345E-13  9.0
       -1    1    3    3    0  500  1.77333393601E+01 -5.64337889415E+01 -9.57089192822E+01  1.12514181725E+02  0.00000000000E+00  0.0000E+00  9.0
        2    1    3    3  500    0  1.88353596458E+01  2.55306500927E+01 -1.01064344461E+02  1.05927270278E+02  0.00000000000E+00  0.0000E+00  9.0
        1    1    4    4  504    0 -1.47281849512E+01 -3.34792522339E+00  1.32909124409E+00  1.51622728769E+01  0.00000000000E+00  0.0000E+00  9.0
       -2    1    4    4    0  504 -2.18405140546E+01  3.42510640722E+01  2.29133737300E+02  2.32706710288E+02  0.00000000000E+00  0.0000E+00  9.0
</event>
<event>
 8    1   5.1859766E+00   4.9030000E+02  -1.0000000E+00   9.3710000E-02
       11   -1    0    0    0    0  0.00000000000E+00  0.00000000000E+00  2.49949281540E+02  2.49949281540E+02  0.00000000000E+00  0.0000E+00  9.0
      -11   -1    0    0    0    0  0.00000000000E+00  0.00000000000E+00 -2.40484003480E+02  2.40484003480E+02  0.00000000000E+00  0.0000E+00  9.0
       24    2    1    2    0    0  1.97641631438E+02 -5.50853561591E+01  1.11208665919E+02  2.47121004905E+02  8.12699990734E+01  3.3778E-13  9.0
      -24    2    1    2    0    0 -1.97641631438E+02  5.50853561591E+01 -1.01743387859E+02  2.43312280117E+02  8.21738263806E+01  1.7589E-13  9.0
       -1    1    3    3    0  500  3.73533130077E+01 -4.70665594941E+01  2.68848527073E+01  6.58280055930E+01  0.00000000000E+00  0.0000E+00  9.0
        2    1    3    3  500    0  1.60288318430E+02 -8.01879666498E+00  8.43238132120E+01  1.81292999312E+02  0.00000000000E+00  0.0000E+00  9.0
        3    1    4    4  504    0 -3.92232302535E+01  3.20661844631E+01  4.99341720657E+00  5.09081151973E+01  0.00000000000E+00  0.0000E+00  9.0
       -4    1    4    4    0  504 -1.58418401184E+02  2.30191716960E+01 -1.06736805066E+02  1.92404164920E+02  5.87386917370E-01  0.0000E+00  9.0
</event>
<event>
 8    1   5.1859766E+00   4.7560000E+02  -1.0000000E+00   9.4050000E-02
       11   -1    0    0    0    0  0.00000000000E+00  0.00000000000E+00  2.43819299410E+02  2.43819299410E+02  0.00000000000E+00  0.0000E+00  9.0
      -11   -1    0    0    0    0  0.00000000000E+00  0.00000000000E+00 -2.31909011680E+02  2.31909011680E+02  0.00000000000E+00  0.0000E+00  9.0
       24    2    1    2    0    0  3.19662152344E+01 -2.21872030553E+02  6.92104066869E+00  2.38100598705E+02  7.99684778009E+01  6.3218E-14  9.0
      -24    2    1    2    0    0 -3.19662152344E+01  2.21872030553E+02  4.98924706891E+00  2.37627712389E+02  7.86956177363E+01  7.3928E-14  9.0
      -13    1    3    3    0    0 -6.95075289990E-01 -1.92847544259E+02  1.58654415731E+01  1.93500340736E+02  1.05700000000E-01  0.0000E+00  9.0
       14    1    3    3    0    0  3.26612905243E+01 -2.90244862942E+01 -8.94440090439E+00  4.46002579690E+01  0.00000000000E+00  0.0000E+00  9.0
        1    1    4    4  500    0 -3.10724098110E+01  1.72710606904E+02  3.64843734616E+01  1.79236039611E+02  0.00000000000E+00  0.0000E+00  9.0
       -2    1    4    4    0  500 -8.93805423402E-01  4.91614236491E+01 -3.14951263927E+01  5.83916727781E+01  0.00000000000E+00  0.0000E+00  9.0
</event>
<event>
 8    1   5.1859766E+00   4.9750000E+02  -1.0000000E+00   9.3550000E-02
       11   -1    0    0    0    0  0.00000000000E+00  0.00000000000E+00  2.47536596940E+02  2.47536596940E+02  0.00000000000E+00  0.0000E+00  9.0
      -11   -1    0    0    0    0  0.00000000000E+00  0.00000000000E+00 -2.49999999430E+02  2.49999999430E+02  0.00000000000E+00  0.0000E+00  9.0
       24    2    1    2    0    0  9.97031788194E+00  6.89090833524E+01 -2.21806948641E+02  2.45154937600E+02  7.78122866721E+01  2.7947E-14  9.0
      -24    2    1    2    0    0 -9.97031788194E+00 -6.89090833524E+01  2.19343546151E+02  2.52381658781E+02  1.03619696216E+02  1.3977E-13  9.0
       -3    1    3    3    0  500 -1.23970029767E+01  7.11171133060E+01 -2.04239191379E+02  2.16621736636E+02  0.00000000000E+00  0.0000E+00  9.0
        4    1    3    3  500    0  2.23673208586E+01 -2.20802995362E+00 -1.75677572611E+01  2.85332009639E+01  5.87386917370E-01  0.0000E+00  9.0
        3    1    4    4  504    0  2.34362033119E+01 -7.55541881777E+01  9.58600356020E+01  1.24285306463E+02  0.00000000000E+00  0.0000E+00  9.0
       -4    1    4    4    0  504 -3.34065211938E+01  6.64510482537E+00  1.23483510549E+02  1.28096352318E+02  5.87386917370E-01  0.0000E+00  9.0
</event>
<event>
 8    1   5.1859766E+00   4.9320000E+02  -1.0000000E+00   9.3640000E-02
       11   -1    0    0    0    0  0.00000000000E+00  0.00000000000E+00  2.43271550760E+02  2.43271550760E+02  0.00000000000E+00  0.0000E+00  9.0
      -11   -1    0    0    0    0  0.00000000000E+00  0.00000000000E+00 -2.49994645440E+02  2.49994645440E+02  0.00000000000E+00  0.0000E+00  9.0
       24    2    1    2    0    0  8.94071547035E+00 -4.91618707930E+01 -2.30540330365E+02  2.50139589633E+02  8.32114441885E+01  7.6753E-14  9.0
      -24    2    1    2    0    0 -8.94071547035E+00  4.91618707930E+01  2.23817235675E+02  2.43126606566E+02  8.07438288792E+01  4.5112E-14  9.0
       -1    1    3    3    0  500 -9.89558383732E+00  2.54899134200E-01  3.26837294033E+00  1.04244815088E+01  0.00000000000E+00  0.0000E+00  9.0
        2    1    3    3  500    0  1.88362993077E+01 -4.94167699272E+01 -2.33808703305E+02  2.39715108124E+02  0.00000000000E+00  0.0000E+00  9.0
        1    1    4    4  504    0  3.39675794506E+00  6.14229652605E+01  9.52506246832E+01  1.13388712527E+02  0.00000000000E+00  0.0000E+00  9.0
       -2    1    4    4    0  504 -1.23374734154E+01 -1.22610944674E+01  1.28566610992E+02  1.29737894039E+02  0.00000000000E+00  0.0000E+00  9.0
</event>
<event>
 8    1   5.1859766E+00   4.6630000E+02  -1.0000000E+00   9.4270000E-02
       11   -1    0    0    0    0  0.00000000000E+00  0.00000000000E+00  2.49955373560E+02  2.49955373560E+02  0.00000000000E+00  0.0000E+00  9.0
      -11   -1    0    0    0    0  0.00000000000E+00  0.00000000000E+00 -2.17432374860E+02  2.17432374860E+02  0.00000000000E+00  0.0000E+00  9.0
       24    2    1    2    0    0  1.10250274242E+01 -3.25922911721E+01 -2.00568608587E+02  2.18810951343E+02  8.04155271297E+01  1.3549E-13  9.0
      -24    2    1    2    0    0 -1.10250274242E+01  3.25922911721E+01  2.33091607287E+02  2.48576797084E+02  7.92143799280E+01  3.4314E-13  9.0
       -1    1    3    3    0  500 -3.49481664153E+01 -1.30978649518E+01 -9.33428278390E+01  1.00527667391E+02  0.00000000000E+00  0.0000E+00  9.0
        2    1    3    3  500    0  4.59731938394E+01 -1.94944262202E+01 -1.07225780748E+02  1.18283283952E+02  0.00000000000E+00  0.0000E+00  9.0
        3    1    4    4  504    0  1.04778013764E+01  3.65127175487E+01  2.19649841206E+02  2.22910330865E+02  0.00000000000E+00  0.0000E+00  9.0
       -4    1    4    4    0  504 -2.15028288006E+01 -3.92042637668E+00  1.34417660807E+01  2.56664662188E+01  5.87386917370E-01  0.0000E+00  9.0
</event>
<event>
 8    1   5.1859766E+00   5.0000000E+02  -1.0000000E+00   9.3490000E-02
       11   -1    0    0    0    0  0.00000000000E+00  0.00000000000E+00  2.49999987650E+02  2.49999987650E+02  0.00000000000E+00  0.0000E+00  9.0
      -11   -1    0    0    0    0  0.00000000000E+00  0.00000000000E+00 -2.49972295790E+02  2.49972295790E+02  0.00000000000E+00  0.0000E+00  9.0
       24    2    1    2    0    0 -1.40676734342E+02 -4.41346261347E+01 -1.85992778957E+02  2.49334480571E+02  7.63973858715E+01  3.0093E-14  9.0
      -24    2    1    2    0    0  1.40676734342E+02  4.41346261347E+01  1.86020470827E+02  2.50637802878E+02  8.04853021073E+01  6.0468E-14  9.0
      -13    1    3    3    0    0 -1.43764919536E+02 -5.48334217056E+01 -1.65261169793E+02  2.25801509381E+02  1.05700000000E-01  0.0000E+00  9.0
       14    1    3    3    0    0  3.08818519360E+00  1.06987955708E+01 -2.07316091645E+01  2.35329711895E+01  0.00000000000E+00  0.0000E+00  9.0
        1    1    4    4  500    0  2.51911766964E+01  2.75227686097E+01  9.68554573680E+01  1.03793438122E+02  0.00000000000E+00  0.0000E+00  9.0
       -2    1    4    4    0  500  1.15485557646E+02  1.66118575250E+01  8.91650134592E+01  1.46844364755E+02  0.00000000000E+00  0.0000E+00  9.0
</event>
<event>
 8    1   5.1859766E+00   4.2680000E+02  -1.0000000E+00   9.5270000E-02
       11   -1    0    0    0    0  0.00000000000E+00  0.00000000000E+00  1.82316733100E+02  1.82316733100E+02  0.00000000000E+00  0.0000E+00  9.0
      -11   -1    0    0    0    0  0.00000000000E+00  0.00000000000E+00 -2.49835673890E+02  2.49835673890E+02  0.00000000000E+00  0.0000E+00  9.0
       24    2    1    2    0    0  1.13775471797E+02  1.60589584753E+02 -5.33707876572E+01  2.18713208580E+02  7.90768861211E+01  4.8827E-14  9.0
      -24    2    1    2    0    0 -1.13775471797E+02 -1.60589584753E+02 -1.41481531348E+01  2.13439198403E+02  8.13771986751E+01  1.5684E-13  9.0
       -3    1    3    3    0  500  7.90460730662E+01  8.37678000781E+01  6.42097312155E+00  1.15354041511E+02  0.00000000000E+00  0.0000E+00  9.0
        4    1    3    3  500    0  3.47293987304E+01  7.68217846751E+01 -5.97917607787E+01  1.03359167069E+02  5.87386917370E-01  0.0000E+00  9.0
        1    1    4    4  504    0 -7.38436715898E+01 -3.77710258743E+01 -1.50052450642E+01  8.42893564390E+01  0.00000000000E+00  0.0000E+00  9.0
       -2    1    4    4    0  504 -3.99318002067E+01 -1.22818558879E+02  8.57091929391E-01  1.29149841964E+02  0.00000000000E+00  0.0000E+00  9.0
</event>
<event>
 8    1   5.1859766E+00   4.9800000E+02  -1.0000000E+00   9.3530000E-02
       11   -1    0    0    0    0  0.00000000000E+00  0.00000000000E+00  2.50000000000E+02  2.50000000000E+02  0.00000000000E+00  0.0000E+00  9.0
      -11   -1    0    0    0    0  0.00000000000E+00  0.00000000000E+00 -2.48015477420E+02  2.48015477420E+02  0.00000000000E+00  0.0000E+00  9.0
       24    2    1    2    0    0 -1.12037147835E+02  3.02971497945E+00 -2.06348351685E+02  2.48212129685E+02  8.04246070016E+01  1.8669E-14  9.0
      -24    2    1    2    0    0  1.12037147835E+02 -3.02971497945E+00  2.08332874265E+02  2.49803347742E+02  8.02348077550E+01  5.9422E-14  9.0
       -1    1    3    3    0  500 -3.34451530002E+01 -3.43597794865E+01 -5.00251391631E+01  6.92942079387E+01  0.00000000000E+00  0.0000E+00  9.0
        2    1    3    3  500    0 -7.85919948351E+01  3.73894944659E+01 -1.56323212522E+02  1.78917921746E+02  0.00000000000E+00  0.0000E+00  9.0
        3    1    4    4  504    0  2.32737541933E+01 -9.97140852888E+00  2.38359862842E+00  2.54318336878E+01  0.00000000000E+00  0.0000E+00  9.0
       -4    1    4    4    0  504  8.87633936419E+01  6.94169354944E+00  2.05949275637E+02  2.24371514054E+02  5.87386917370E-01  0.0000E+00  9.0
</event>
<event>
 8    1   5.1859766E+00   5.0000000E+02  -1.0000000E+00   9.3490000E-02
       11   -1    0    0    0    0  0.00000000000E+00  0.00000000000E+00  2.50000000000E+02  2.50000000000E+02  0.00000000000E+00  0.0000E+00  9.0
      -11   -1    0    0    0    0  0.00000000000E+00  0.00000000000E+00 -2.49999998800E+02  2.49999998800E+02  0.00000000000E+00  0.0000E+00  9.0
       24    2    1    2    0    0  6.32219983933E+01  1.08442719279E+02 -2.00391230112E+02  2.49088694603E+02  7.83050970748E+01  2.0951E-14  9.0
      -24    2    1    2    0    0 -6.32219983933E+01 -1.08442719279E+02  2.00391231312E+02  2.50911304194E+02  8.39225389289E+01  2.2249E-13  9.0
       -1    1    3    3    0  500  6.28587545342E+01  3.64667718985E+01 -1.26813129233E+02  1.46159564245E+02  0.00000000000E+00  0.0000E+00  9.0
        2    1    3    3  500    0  3.63243859109E-01  7.19759473808E+01 -7.35781008788E+01  1.02929130359E+02  0.00000000000E+00  0.0000E+00  9.0
        1    1    4    4  504    0 -7.18838919397E+01 -9.43452926554E+01  1.19593151906E+02  1.68436486989E+02  0.00000000000E+00  0.0000E+00  9.0
       -2    1    4    4    0  504  8.66189354642E+00 -1.40974266239E+01  8.07980794064E+01  8.24748172050E+01  0.00000000000E+00  0.0000E+00  9.0
</event>
<event>
 8    1   5.1859766E+00   4.9530000E+02  -1.0000000E+00   9.3600000E-02
       11   -1    0    0    0    0  0.00000000000E+00  0.00000000000E+00  2.49995630690E+02  2.49995630690E+02  0.00000000000E+00  0.0000E+00  9.0
      -11   -1    0    0    0    0  0.00000000000E+00  0.00000000000E+00 -2.45324023190E+02  2.45324023190E+02  0.00000000000E+00  0.0000E+00  9.0
       24    2    1    2    0    0  1.55703577428E+02  1.73400217433E+02  2.77363659199E+01  2.47928321950E+02  7.99243855216E+01  1.8323E-13  9.0
      -24    2    1    2    0    0 -1.55703577428E+02 -1.73400217433E+02 -2.30647584119E+01  2.47391331927E+02  7.97448970300E+01  1.1822E-13  9.0
       -1    1    3    3    0  500  1.28159125775E+02  1.29933991031E+02  5.37687137481E+01  1.90259502057E+02  0.00000000000E+00  0.0000E+00  9.0
        2    1    3    3  500    0  2.75444516522E+01  4.34662264015E+01 -2.60323478282E+01  5.76688198931E+01  0.00000000000E+00  0.0000E+00  9.0
        1    1    4    4  504    0 -1.27065100914E+02 -1.40552462220E+02  1.42638134882E+01  1.90010502030E+02  0.00000000000E+00  0.0000E+00  9.0
       -2    1    4    4    0  504 -2.86384765131E+01 -3.28477552130E+01 -3.73285719001E+01  5.73808298967E+01  0.00000000000E+00  0.0000E+00  9.0
</event>
<event>
 8    1   5.1859766E+00   4.7700000E+02  -1.0000000E+00   9.4010000E-02
       11   -1    0    0    0    0  0.00000000000E+00  0.00000000000E+00  2.27529854750E+02  2.27529854750E+02  0.00000000000E+00  0.0000E+00  9.0
      -11   -1    0    0    0    0  0.00000000000E+00  0.00000000000E+00 -2.49997689170E+02  2.49997689170E+02  0.00000000000E+00  0.0000E+00  9.0
       24    2    1    2    0    0 -3.86133396740E+01  5.74226772159E+01 -2.24909475818E+02  2.49052143515E+02  8.15741626834E+01  9.8938E-14  9.0
      -24    2    1    2    0    0  3.86133396740E+01 -5.74226772159E+01  2.02441641398E+02  2.28475400391E+02  8.01875087051E+01  1.2787E-14  9.0
      -13    1    3    3    0    0 -2.72419397184E+01  7.04590922818E+00 -1.74947144382E+02  1.77195605523E+02  1.05700000000E-01  0.0000E+00  9.0
       14    1    3    3    0    0 -1.13713999556E+01  5.03767679877E+01 -4.99623314356E+01  7.18565379928E+01  0.00000000000E+00  0.0000E+00  9.0
        1    1    4    4  500    0 -2.94358684549E+00  9.55400976295E+00  9.33714315761E+01  9.39051012492E+01  0.00000000000E+00  0.0000E+00  9.0
       -2    1    4    4    0  500  4.15569265195E+01 -6.69766869788E+01  1.09070209822E+02  1.34570299141E+02  0.00000000000E+00  0.0000E+00  9.0
</event>
<event>
 8    1   5.1859766E+00   4.9940000E+02  -1.0000000E+00   9.3500000E-02
       11   -1    0    0    0    0  0.00000000000E+00  0.00000000000E+00  2.49503619140E+02  2.49503619140E+02  0.00000000000E+00  0.0000E+00  9.0
      -11   -1    0    0    0    0  0.00000000000E+00  0.00000000000E+00 -2.49849412730E+02  2.49849412730E+02  0.00000000000E+00  0.0000E+00  9.0
       24    2    1    2    0    0 -1.83484772192E+01  9.37432514811E+01 -2.16307099732E+02  2.49832037556E+02  8.06400755221E+01  1.9777E-14  9.0
      -24    2    1    2    0    0  1.83484772192E+01 -9.37432514811E+01  2.15961306142E+02  2.49520994318E+02  8.06038277003E+01  6.9978E-14  9.0
       -1    1    3    3    0  500 -3.36055879066E+01  7.26086597608E+01 -2.07381289870E+02  2.22279896525E+02  0.00000000000E+00  0.0000E+00  9.0
        2    1    3    3  500    0  1.52571106875E+01  2.11345917203E+01 -8.92580986234E+00  2.75521410314E+01  0.00000000000E+00  0.0000E+00  9.0
       13    1    4    4    0    0  2.59435020988E+01 -1.05236814394E+02  2.05099586415E+02  2.31977809122E+02  1.05700000000E-01  0.0000E+00  9.0
      -14    1    4    4    0    0 -7.59502487968E+00  1.14935629132E+01  1.08617197275E+01  1.75431851954E+01  0.00000000000E+00  0.0000E+00  9.0
</event>
<event>
 8    1   5.1859766E+00   4.7830000E+02  -1.0000000E+00   9.3990000E-02
       11   -1    0    0    0    0  0.00000000000E+00  0.00000000000E+00  2.47736709870E+02  2.47736709870E+02  0.00000000000E+00  0.0000E+00  9.0
      -11   -1    0    0    0    0  0.00000000000E+00  0.00000000000E+00 -2.30814351070E+02  2.30814351070E+02  0.00000000000E+00  0.0000E+00  9.0
       24    2    1    2    0    0 -5.43240541717E+01 -3.80811977660E+00 -2.09692143098E+02  2.30693983344E+02  7.92673604707E+01  2.5030E-14  9.0
      -24    2    1    2    0    0  5.43240541717E+01  3.80811977660E+00  2.26614501908E+02  2.47857077600E+02  8.43409378866E+01  2.0455E-13  9.0
       -1    1    3    3    0  500 -1.05750552549E+01  2.74457485198E+01 -1.37893553350E+02  1.40995506882E+02  0.00000000000E+00  0.0000E+00  9.0
        2    1    3    3  500    0 -4.37489989168E+01 -3.12538682964E+01 -7.17985897485E+01  8.96984764619E+01  0.00000000000E+00  0.0000E+00  9.0
        1    1    4    4  504    0  6.21015107537E+01  9.86039091458E+00  8.41281489666E+01  1.05030330836E+02  0.00000000000E+00  0.0000E+00  9.0
       -2    1    4    4    0  504 -7.77745658199E+00 -6.05227113798E+00  1.42486352941E+02  1.42826746765E+02  0.00000000000E+00  0.0000E+00  9.0
</event>
<event>
 8    1   5.1859766E+00   4.9230000E+02  -1.0000000E+00   9.3660000E-02
       11   -1    0    0    0    0  0.00000000000E+00  0.00000000000E+00  2.45565789960E+02  2.45565789960E+02  0.00000000000E+00  0.0000E+00  9.0
      -11   -1    0    0    0    0  0.00000000000E+00  0.00000000000E+00 -2.46727357810E+02  2.46727357810E+02  0.00000000000E+00  0.0000E+00  9.0
       24    2    1    2    0    0 -1.24759250999E+00  1.66661200463E+01 -2.33520885643E+02  2.46019396796E+02  7.55924832521E+01  4.4892E-14  9.0
      -24    2    1    2    0    0  1.24759250999E+00 -1.66661200463E+01  2.32359317793E+02  2.46273750973E+02  7.98786067017E+01  7.6941E-14  9.0
       -1    1    3    3    0  500 -1.58979345758E+01  3.46358757786E+01 -2.08313763646E+02  2.11771131978E+02  0.00000000000E+00  0.0000E+00  9.0
        2    1    3    3  500    0  1.46503420658E+01 -1.79697557324E+01 -2.52071219962E+01  3.42482648182E+01  0.00000000000E+00  0.0000E+00  9.0
        1    1    4    4  504    0 -1.00900855454E+01  2.88966605174E+01  5.65391430507E+01  6.42923130108E+01  0.00000000000E+00  0.0000E+00  9.0
       -2    1    4    4    0  504  1.13376780554E+01 -4.55627805636E+01  1.75820174742E+02  1.81981437962E+02  0.00000000000E+00  0.0000E+00  9.0
</event>
<event>
 8    1   5.1859766E+00   3.2740000E+02  -1.0000000E+00   9.8430000E-02
       11   -1    0    0    0    0  0.00000000000E+00  0.00000000000E+00  1.07165914880E+02  1.07165914880E+02  0.00000000000E+00  0.0000E+00  9.0
      -11   -1    0    0    0    0  0.00000000000E+00  0.00000000000E+00 -2.49999999540E+02  2.49999999540E+02  0.00000000000E+00  0.0000E+00  9.0
       24    2    1    2    0    0 -1.10179055385E+01  1.00830862698E+01 -2.25733358258E+02  2.40097325619E+02  8.04245849737E+01  1.3351E-15  9.0
      -24    2    1    2    0    0  1.10179055385E+01 -1.00830862698E+01  8.28992735966E+01  1.17068588803E+02  8.13000741098E+01  5.6971E-14  9.0
       -1    1    3    3    0  500 -3.73422132118E+01  3.04718288369E+01 -1.23154244106E+02  1.32249540950E+02  0.00000000000E+00  0.0000E+00  9.0
        2    1    3    3  500    0  2.63243076733E+01 -2.03887425671E+01 -1.02579114152E+02  1.07847784669E+02  0.00000000000E+00  0.0000E+00  9.0
        3    1    4    4  504    0  1.90663574252E+01  2.36869635237E+01  3.74872726940E+00  3.06374147502E+01  0.00000000000E+00  0.0000E+00  9.0
       -4    1    4    4    0  504 -8.04845188667E+00 -3.37700497935E+01  7.91505463272E+01  8.64311740526E+01  5.87386917370E-01  0.0000E+00  9.0
</event>
<event>
 8    1   5.1859766E+00   4.8280000E+02  -1.0000000E+00   9.3880000E-02
       11   -1    0    0    0    0  0.00000000000E+00  0.00000000000E+00  2.48461976570E+02  2.48461976570E+02  0.00000000000E+00  0.0000E+00  9.0
      -11   -1    0    0    0    0  0.00000000000E+00  0.00000000000E+00 -2.34517477450E+02  2.34517477450E+02  0.00000000000E+00  0.0000E+00  9.0
       24    2    1    2    0    0  6.93279047388E+01  1.56272923403E+02 -1.43133918787E+02  2.37049564674E+02  8.04834917248E+01  2.7151E-13  9.0
      -24    2    1    2    0    0 -6.93279047388E+01 -1.56272923403E+02  1.57078417897E+02  2.45929889340E+02  8.11190245094E+01  1.1274E-14  9.0
       -1    1    3    3    0  500  7.46304424926E+01  1.63529013278E+02 -1.33737394299E+02  2.24047164151E+02  0.00000000000E+00  0.0000E+00  9.0
        2    1    3    3  500    0 -5.30253775375E+00 -7.25608987459E+00 -9.39652448791E+00  1.30024005226E+01  0.00000000000E+00  0.0000E+00  9.0
        1    1    4    4  504    0  1.25006915197E+01 -2.98305792123E+01  5.55953838286E+01  6.43193396084E+01  0.00000000000E+00  0.0000E+00  9.0
       -2    1    4    4    0  504 -8.18285962585E+01 -1.26442344191E+02  1.01483034068E+02  1.81610549732E+02  0.00000000000E+00  0.0000E+00  9.0
</event>
<event>
 8    1   5.1859766E+00   4.9750000E+02  -1.0000000E+00   9.3550000E-02
       11   -1    0    0    0    0  0.00000000000E+00  0.00000000000E+00  2.49148349610E+02  2.49148349610E+02  0.00000000000E+00  0.0000E+00  9.0
      -11   -1    0    0    0    0  0.00000000000E+00  0.00000000000E+00 -2.48399152150E+02  2.48399152150E+02  0.00000000000E+00  0.0000E+00  9.0
       24    2    1    2    0    0 -2.87975894916E+01 -2.80835057015E+01 -2.31510063728E+02  2.48457544115E+02  8.07233371917E+01  1.2591E-14  9.0
      -24    2    1    2    0    0  2.87975894916E+01  2.80835057015E+01  2.32259261188E+02  2.49089957645E+02  8.05199238646E+01  2.0265E-15  9.0
       -1    1    3    3    0  500 -3.58706636826E+01  1.65936350735E+01 -6.64843223730E+01  7.73448017606E+01  0.00000000000E+00  0.0000E+00  9.0
        2    1    3    3  500    0  7.07307419098E+00 -4.46771407750E+01 -1.65025741355E+02  1.71112742355E+02  0.00000000000E+00  0.0000E+00  9.0
        1    1    4    4  504    0  2.17648478952E+01  3.38358471525E+00  8.10631283421E+00  2.34706104989E+01  0.00000000000E+00  0.0000E+00  9.0
       -2    1    4    4    0  504  7.03274159641E+00  2.46999209863E+01  2.24152948354E+02  2.25619347146E+02  0.00000000000E+00  0.0000E+00  9.0
</event>
<event>
 8    1   5.1859766E+00   4.6790000E+02  -1.0000000E+00   9.4230000E-02
       11   -1    0    0    0    0  0.00000000000E+00  0.00000000000E+00  2.48738157300E+02  2.48738157300E+02  0.00000000000E+00  0.0000E+00  9.0
      -11   -1    0    0    0    0  0.00000000000E+00  0.00000000000E+00 -2.20084425810E+02  2.20084425810E+02  0.00000000000E+00  0.0000E+00  9.0
       24    2    1    2    0    0  1.32591806173E+02  3.38248309157E+01 -1.54684112793E+02  2.26618351186E+02  9.32952093785E+01  8.0160E-15  9.0
      -24    2    1    2    0    0 -1.32591806173E+02 -3.38248309157E+01  1.83337844283E+02  2.42204231931E+02  7.95325000759E+01  1.0057E-13  9.0
      -13    1    3    3    0    0  1.00558609931E+02 -5.59797047970E-01 -1.48319329389E+02  1.79195373955E+02  1.05700000000E-01  0.0000E+00  9.0
       14    1    3    3    0    0  3.20331962411E+01  3.43846279637E+01 -6.36478340409E+00  4.74229772305E+01  0.00000000000E+00  0.0000E+00  9.0
        3    1    4    4  500    0 -2.59876696498E+01  6.46503335542E-01 -1.52365858955E+00  2.60403240357E+01  0.00000000000E+00  0.0000E+00  9.0
       -4    1    4    4    0  500 -1.06604136523E+02 -3.44713342513E+01  1.84861502872E+02  2.16163907895E+02  5.87386917370E-01  0.0000E+00  9.0
</event>
<event>
 8    1   5.1859766E+00   4.6910000E+02  -1.0000000E+00   9.4200000E-02
       11   -1    0    0    0    0  0.00000000000E+00  0.00000000000E+00  2.20088871610E+02  2.20088871610E+02  0.00000000000E+00  0.0000E+00  9.0
      -11   -1    0    0    0    0  0.00000000000E+00  0.00000000000E+00 -2.49999999980E+02  2.49999999980E+02  0.00000000000E+00  0.0000E+00  9.0
       24    2    1    2    0    0 -2.00573374831E+02  6.48557042685E+01 -8.07393501913E+01  2.39243787080E+02  7.92641528049E+01  2.1953E-13  9.0
      -24    2    1    2    0    0  2.00573374831E+02 -6.48557042685E+01  5.08282218153E+01  2.30845084510E+02  7.91833558425E+01  2.3645E-13  9.0
       -3    1    3    3    0  500 -5.24139053234E+01 -1.19262564139E+01  2.50389862470E-01  5.37542161917E+01  0.00000000000E+00  0.0000E+00  9.0
        4    1    3    3  500    0 -1.48159469507E+02  7.67819606824E+01 -8.09897400538E+01  1.85489570888E+02  5.87386917370E-01  0.0000E+00  9.0
        1    1    4    4  504    0  1.28182553811E+00 -6.03778568322E+00 -1.22286046442E+01  1.36980547601E+01  0.00000000000E+00  0.0000E+00  9.0
       -2    1    4    4    0  504  1.99291549293E+02 -5.88179185853E+01  6.30568264595E+01  2.17147029750E+02  0.00000000000E+00  0.0000E+00  9.0
</event>
<event>
 8    1   5.1859766E+00   4.9930000E+02  -1.0000000E+00   9.3510000E-02
       11   -1    0    0    0    0  0.00000000000E+00  0.00000000000E+00  2.49338299650E+02  2.49338299650E+02  0.00000000000E+00  0.0000E+00  9.0
      -11   -1    0    0    0    0  0.00000000000E+00  0.00000000000E+00 -2.50000000000E+02  2.50000000000E+02  0.00000000000E+00  0.0000E+00  9.0
       24    2    1    2    0    0  8.57743367232E+01 -2.41771607907E+01 -2.19662799295E+02  2.50164919766E+02  7.99310311656E+01  1.6149E-14  9.0
      -24    2    1    2    0    0 -8.57743367232E+01  2.41771607907E+01  2.19001098945E+02  2.49173379875E+02  7.86391757008E+01  1.9836E-13  9.0
      -13    1    3    3    0    0  7.29492030967E+01  1.72894318372E+01 -1.20490903259E+02  1.41910463414E+02  1.05700000000E-01  0.0000E+00  9.0
       14    1    3    3    0    0  1.28251336265E+01 -4.14665926278E+01 -9.91718960361E+01  1.08254456352E+02  0.00000000000E+00  0.0000E+00  9.0
       13    1    4    4    0    0 -7.72829455582E+01 -2.61630765939E+00  2.02071461520E+02  2.16361700569E+02  1.05700000000E-01  0.0000E+00  9.0
      -14    1    4    4    0    0 -8.49139116505E+00  2.67934684501E+01  1.69296374250E+01  3.28116793054E+01  0.00000000000E+00  0.0000E+00  9.0
</event>
<event>
 8    1   5.1859766E+00   3.1280000E+02  -1.0000000E+00   9.8990000E-02
       11   -1    0    0    0    0  0.00000000000E+00  0.00000000000E+00  9.78528701840E+01  9.78528701840E+01  0.00000000000E+00  0.0000E+00  9.0
      -11   -1    0    0    0    0  0.00000000000E+00  0.00000000000E+00 -2.49999999920E+02  2.49999999920E+02  0.00000000000E+00  0.0000E+00  9.0
       24    2    1    2    0    0 -1.24584491761E+02 -4.89390365800E+01 -6.72567389007E+01  1.70187465042E+02  8.07711547594E+01  4.4576E-14  9.0
      -24    2    1    2    0    0  1.24584491761E+02  4.89390365800E+01 -8.48903908363E+01  1.77665405069E+02  8.02638948312E+01  9.4670E-14  9.0
       -3    1    3    3    0  500 -7.03909105149E+00 -3.44711554404E+01 -2.66082880783E+00  3.52829898134E+01  0.00000000000E+00  0.0000E+00  9.0
        4    1    3    3  500    0 -1.17545400709E+02 -1.44678811396E+01 -6.45959100929E+01  1.34904475228E+02  5.87386917370E-01  0.0000E+00  9.0
        1    1    4    4  504    0  1.26387902626E+02  3.54349959811E+01 -5.04403060238E+01  1.40619221098E+02  0.00000000000E+00  0.0000E+00  9.0
       -2    1    4    4    0  504 -1.80341086561E+00  1.35040405989E+01 -3.44500848125E+01  3.70461839713E+01  0.00000000000E+00  0.0000E+00  9.0
</event>
<event>
 8    1   5.1859766E+00   5.0000000E+02  -1.0000000E+00   9.3490000E-02
       11   -1    0    0    0    0  0.00000000000E+00  0.00000000000E+00  2.50000000000E+02  2.50000000000E+02  0.00000000000E+00  0.0000E+00  9.0
      -11   -1    0    0    0    0  0.00000000000E+00  0.00000000000E+00 -2.49999299360E+02  2.49999299360E+02  0.00000000000E+00  0.0000E+00  9.0
       24    2    1    2    0    0  2.34950402300E+01  2.31060377876E+02  4.81535353378E+01  2.49427678561E+02  7.71653337158E+01  1.2545E-13  9.0
      -24    2    1    2    0    0 -2.34950402300E+01 -2.31060377876E+02 -4.81528346968E+01  2.50571620790E+02  8.07869204559E+01  6.9737E-14  9.0
       -1    1    3    3    0  500  2.26533842412E+01  2.32508298346E+02  5.69683734931E+01  2.40455152150E+02  0.00000000000E+00  0.0000E+00  9.0
        2    1    3    3  500    0  8.41655988838E-01 -1.44792046994E+00 -8.81483815538E+00  8.97252641101E+00  0.00000000000E+00  0.0000E+00  9.0
        3    1    4    4  504    0 -5.23952451582E+01 -1.75115865596E+02 -3.95434933013E+01  1.87014747978E+02  0.00000000000E+00  0.0000E+00  9.0
       -4    1    4    4    0  504  2.89002049282E+01 -5.59445122795E+01 -8.60934139541E+00  6.35568728128E+01  5.87386917370E-01  0.0000E+00  9.0
</event>
<event>
 8    1   5.1859766E+00   4.9690000E+02  -1.0000000E+00   9.3560000E-02
       11   -1    0    0    0    0  0.00000000000E+00  0.00000000000E+00  2.50000000000E+02  2.50000000000E+02  0.00000000000E+00  0.0000E+00  9.0
      -11   -1    0    0    0    0  0.00000000000E+00  0.00000000000E+00 -2.46870668100E+02  2.46870668100E+02  0.00000000000E+00  0.0000E+00  9.0
       24    2    1    2    0    0  4.29216474035E+01  1.96934726198E+02 -1.20195141556E+02  2.47420084854E+02  7.83854076797E+01  1.4625E-13  9.0
      -24    2    1    2    0    0 -4.29216474035E+01 -1.96934726198E+02  1.23324473456E+02  2.49450583238E+02  7.99444402439E+01  7.8135E-14  9.0
       -3    1    3    3    0  500 -1.30542618822E+01  1.19624225320E+02 -5.88174372244E+01  1.33939762424E+02  0.00000000000E+00  0.0000E+00  9.0
        4    1    3    3  500    0  5.59759092857E+01  7.73105008786E+01 -6.13777043317E+01  1.13480322430E+02  5.87386917370E-01  0.0000E+00  9.0
        3    1    4    4  504    0 -4.95763291315E+01 -1.87199013827E+02  1.32375598690E+02  2.34573191811E+02  0.00000000000E+00  0.0000E+00  9.0
       -4    1    4    4    0  504  6.65468172801E+00 -9.73571237091E+00 -9.05112523378E+00  1.48773914265E+01  5.87386917370E-01  0.0000E+00  9.0
</event>
<event>
 8    1   5.1859766E+00   3.9590000E+02  -1.0000000E+00   9.6150000E-02
       11   -1    0    0    0    0  0.00000000000E+00  0.00000000000E+00  2.06255257190E+02  2.06255257190E+02  0.00000000000E+00  0.0000E+00  9.0
      -11   -1    0    0    0    0  0.00000000000E+00  0.00000000000E+00 -1.90018829840E+02  1.90018829840E+02  0.00000000000E+00  0.0000E+00  9.0
       24    2    1    2    0    0  4.06821425059E+01  5.10121109142E+00 -1.68572066618E+02  1.91088069994E+02  8.01064902299E+01  2.2926E-14  9.0
      -24    2    1    2    0    0 -4.06821425059E+01 -5.10121109142E+00  1.84808493968E+02  2.05186017044E+02  7.91584681156E+01  1.7924E-13  9.0
       -1    1    3    3    0  500 -3.36080824169E+00 -1.88645432043E+01 -4.71812815320E+00  1.97338986421E+01  0.00000000000E+00  0.0000E+00  9.0
        2    1    3    3  500    0  4.40429507476E+01  2.39657542958E+01 -1.63853938464E+02  1.71354171352E+02  0.00000000000E+00  0.0000E+00  9.0
        3    1    4    4  504    0 -2.64403785024E+01 -3.42466624618E+01  4.81670899210E+01  6.47456257718E+01  0.00000000000E+00  0.0000E+00  9.0
       -4    1    4    4    0  504 -1.42417640035E+01  2.91454513704E+01  1.36641404047E+02  1.40440391272E+02  5.87386917370E-01  0.0000E+00  9.0
</event>
<event>
 8    1   5.1859766E+00   4.9840000E+02  -1.0000000E+00   9.3530000E-02
       11   -1    0    0    0    0  0.00000000000E+00  0.00000000000E+00  2.49999999180E+02  2.49999999180E+02  0.00000000000E+00  0.0000E+00  9.0
      -11   -1    0    0    0    0  0.00000000000E+00  0.00000000000E+00 -2.48407476240E+02  2.48407476240E+02  0.00000000000E+00  0.0000E+00  9.0
       24    2    1    2    0    0  3.20818325561E+01  1.02581003439E+02 -2.09457613228E+02  2.48362934380E+02  7.91173128203E+01  1.2862E-13  9.0
      -24    2    1    2    0    0 -3.20818325561E+01 -1.02581003439E+02  2.11050136168E+02  2.50044541034E+02  8.01748481630E+01  4.2607E-14  9.0
       -1    1    3    3    0  500  2.70825873964E+01  5.61384978637E+01 -4.36315698599E+01  7.60835814806E+01  0.00000000000E+00  0.0000E+00  9.0
        2    1    3    3  500    0  4.99924515965E+00  4.64425055751E+01 -1.65826043368E+02  1.72279352899E+02  0.00000000000E+00  0.0000E+00  9.0
       13    1    4    4    0    0 -6.46343080940E+00  2.33255943493E+00  7.97076081658E+01  8.00033170771E+01  1.05700000000E-01  0.0000E+00  9.0
      -14    1    4    4    0    0 -2.56184017467E+01 -1.04913562874E+02  1.31342528002E+02  1.70041223957E+02  0.00000000000E+00  0.0000E+00  9.0
</event>
<event>
 8    1   5.1859766E+00   4.9410000E+02  -1.0000000E+00   9.3620000E-02
       11   -1    0    0    0    0  0.00000000000E+00  0.00000000000E+00  2.48466473070E+02  2.48466473070E+02  0.00000000000E+00  0.0000E+00  9.0
      -11   -1    0    0    0    0  0.00000000000E+00  0.00000000000E+00 -2.45635969600E+02  2.45635969600E+02  0.00000000000E+00  0.0000E+00  9.0
       24    2    1    2    0    0  1.29580247706E+02  1.82876543495E+02 -6.67731368674E+01  2.47385847255E+02  8.06612351669E+01  3.5409E-14  9.0
      -24    2    1    2    0    0 -1.29580247706E+02 -1.82876543495E+02  6.96036403404E+01  2.46716595424E+02  7.60890330642E+01  1.0840E-13  9.0
       -3    1    3    3    0  500  1.34110504434E+02  1.85372717852E+02 -5.61981805662E+01  2.35599039519E+02  0.00000000000E+00  0.0000E+00  9.0
        4    1    3    3  500    0 -4.53025672854E+00 -2.49617435619E+00 -1.05749563012E+01  1.17868077360E+01  5.87386917370E-01  0.0000E+00  9.0
        1    1    4    4  504    0 -1.29379363725E+02 -1.66924561892E+02  4.27432135737E+01  2.15475779213E+02  0.00000000000E+00  0.0000E+00  9.0
       -2    1    4    4    0  504 -2.00883980583E-01 -1.59519816033E+01  2.68604267667E+01  3.12408162111E+01  0.00000000000E+00  0.0000E+00  9.0
</event>
<event>
 8    1   5.1859766E+00   2.5800000E+02  -1.0000000E+00   1.0140000E-01
       11   -1    0    0    0    0  0.00000000000E+00  0.00000000000E+00  6.88289792430E+01  6.88289792430E+01  0.00000000000E+00  0.0000E+00  9.0
      -11   -1    0    0    0    0  0.00000000000E+00  0.00000000000E+00 -2.41729455780E+02  2.41729455780E+02  0.00000000000E+00  0.0000E+00  9.0
       24    2    1    2    0    0 -4.98877183893E+00 -3.31746269934E+01 -2.03974225744E+02  2.20060682394E+02  7.54703613834E+01  1.1863E-13  9.0
      -24    2    1    2    0    0  4.98877183893E+00  3.31746269934E+01  3.10737492080E+01  9.04977526282E+01  7.80949525917E+01  3.2266E-13  9.0
      -13    1    3    3    0    0  2.87927850836E+00 -5.71553574056E+01 -1.46991979353E+02  1.57739273143E+02  1.05700000000E-01  0.0000E+00  9.0
       14    1    3    3    0    0 -7.86805034729E+00  2.39807304122E+01 -5.69822463907E+01  6.23214092516E+01  0.00000000000E+00  0.0000E+00  9.0
        3    1    4    4  500    0  3.63619045976E+01 -2.85874925064E+00  7.58076951507E+00  3.72535719050E+01  0.00000000000E+00  0.0000E+00  9.0
       -4    1    4    4    0  500 -3.13731327587E+01  3.60333762440E+01  2.34929796929E+01  5.32441807231E+01  5.87386917370E-01  0.0000E+00  9.0
</event>
<event>
 8    1   5.1859766E+00   4.9840000E+02  -1.0000000E+00   9.3530000E-02
       11   -1    0    0    0    0  0.00000000000E+00  0.00000000000E+00  2.49875084810E+02  2.49875084810E+02  0.00000000000E+00  0.0000E+00  9.0
      -11   -1    0    0    0    0  0.00000000000E+00  0.00000000000E+00 -2.48541907640E+02  2.48541907640E+02  0.00000000000E+00  0.0000E+00  9.0
       24    2    1    2    0    0  2.29468022337E+02 -4.77088929993E+01 -1.44609210797E+01  2.48333982154E+02  8.08018360389E+01  7.0551E-14  9.0
      -24    2    1    2    0    0 -2.29468022337E+02  4.77088929993E+01  1.57940982507E+01  2.50083010300E+02  8.57924632720E+01  2.8198E-13  9.0
      -13    1    3    3    0    0  6.37298989776E+01 -3.91796211877E+01  2.28736576232E+01  7.82288829376E+01  1.05700000000E-01  0.0000E+00  9.0
       14    1    3    3    0    0  1.65738123360E+02 -8.52927181159E+00 -3.73345787028E+01  1.70105099216E+02  0.00000000000E+00  0.0000E+00  9.0
        3    1    4    4  500    0 -1.18020405826E+02 -7.35196660100E+00 -2.17409796586E+01  1.20231184810E+02  0.00000000000E+00  0.0000E+00  9.0
       -4    1    4    4    0  500 -1.11447616511E+02  5.50608596003E+01  3.75350779092E+01  1.29851825490E+02  5.87386917370E-01  0.0000E+00  9.0
</event>
<event>
 8    1   5.1859766E+00   4.5340000E+02  -1.0000000E+00   9.4580000E-02
       11   -1    0    0    0    0  0.00000000000E+00  0.00000000000E+00  2.44222658250E+02  2.44222658250E+02  0.00000000000E+00  0.0000E+00  9.0
      -11   -1    0    0    0    0  0.00000000000E+00  0.00000000000E+00 -2.10467835440E+02  2.10467835440E+02  0.00000000000E+00  0.0000E+00  9.0
       24    2    1    2    0    0 -1.62488553854E+01  1.27734418670E+02  1.86322923718E+02  2.40066752645E+02  7.95971532680E+01  1.4951E-14  9.0
      -24    2    1    2    0    0  1.62488553854E+01 -1.27734418670E+02 -1.52568100908E+02  2.14623741034E+02  7.87795518302E+01  3.2895E-14  9.0
       -3    1    3    3    0  500 -3.39949492600E+01  6.92111076178E+01  5.35328096574E+01  9.38701001527E+01  0.00000000000E+00  0.0000E+00  9.0
        4    1    3    3  500    0  1.77460938746E+01  5.85233110521E+01  1.32790114060E+02  1.46196652492E+02  5.87386917370E-01  0.0000E+00  9.0
        1    1    4    4  504    0  1.86275120183E+01 -7.17614525856E+01 -1.38130770899E+02  1.56769895549E+02  0.00000000000E+00  0.0000E+00  9.0
       -2    1    4    4    0  504 -2.37865663290E+00 -5.59729660843E+01 -1.44373300085E+01  5.78538454852E+01  0.00000000000E+00  0.0000E+00  9.0
</event>
<event>
 8    1   5.1859766E+00   4.6950000E+02  -1.0000000E+00   9.4190000E-02
       11   -1    0    0    0    0  0.00000000000E+00  0.00000000000E+00  2.20901677690E+02  2.20901677690E+02  0.00000000000E+00  0.0000E+00  9.0
      -11   -1    0    0    0    0  0.00000000000E+00  0.00000000000E+00 -2.49437888490E+02  2.49437888490E+02  0.00000000000E+00  0.0000E+00  9.0
       24    2    1    2    0    0 -1.72797305608E+01  7.11453724104E+01 -2.22870441614E+02  2.47598865241E+02  7.92067624619E+01  7.7153E-14  9.0
      -24    2    1    2    0    0  1.72797305608E+01 -7.11453724104E+01  1.94334230814E+02  2.22740700942E+02  8.05442331066E+01  2.4105E-14  9.0
       -1    1    3    3    0  500 -4.44387878348E+00  7.98469441607E+01 -2.16565120904E+02  2.30858688688E+02  0.00000000000E+00  0.0000E+00  9.0
        2    1    3    3  500    0 -1.28358517773E+01 -8.70157175031E+00 -6.30532070989E+00  1.67401765531E+01  0.00000000000E+00  0.0000E+00  9.0
        3    1    4    4  504    0  3.79038017550E+01 -3.44611589282E+00  6.63146342347E+01  7.64604774763E+01  0.00000000000E+00  0.0000E+00  9.0
       -4    1    4    4    0  504 -2.06240711943E+01 -6.76992565176E+01  1.28019596579E+02  1.46280223466E+02  5.87386917370E-01  0.0000E+00  9.0
</event>
<event>
 8    1   5.1859766E+00   4.8600000E+02  -1.0000000E+00   9.3810000E-02
       11   -1    0    0    0    0  0.00000000000E+00  0.00000000000E+00  2.41028616070E+02  2.41028616070E+02  0.00000000000E+00  0.0000E+00  9.0
      -11   -1    0    0    0    0  0.00000000000E+00  0.00000000000E+00 -2.45004530100E+02  2.45004530100E+02  0.00000000000E+00  0.0000E+00  9.0
       24    2    1    2    0    0 -1.16122596325E+02  1.02926395129E+01 -1.98708821320E+02  2.43615578696E+02  7.92020120171E+01  1.3579E-13  9.0
      -24    2    1    2    0    0  1.16122596325E+02 -1.02926395129E+01  1.94732907290E+02  2.42417567470E+02  8.51761470789E+01  1.4319E-13  9.0
       -1    1    3    3    0  500 -3.95213196526E+01 -1.86114222174E+01 -1.28632359473E+02  1.35847722276E+02  0.00000000000E+00  0.0000E+00  9.0
        2    1    3    3  500    0 -7.66012766719E+01  2.89040617303E+01 -7.00764618474E+01  1.07767856420E+02  0.00000000000E+00  0.0000E+00  9.0
        3    1    4    4  504    0  3.45810159355E+01 -4.30312565741E+01  5.97012718680E+01  8.13128376589E+01  0.00000000000E+00  0.0000E+00  9.0
       -4    1    4    4    0  504  8.15415803890E+01  3.27386170612E+01  1.35031635422E+02  1.61104729811E+02  5.87386917370E-01  0.0000E+00  9.0
</event>
<event>
 8    1   5.1859766E+00   2.8200000E+02  -1.0000000E+00   1.0030000E-01
       11   -1    0    0    0    0  0.00000000000E+00  0.00000000000E+00  2.46113570700E+02  2.46113570700E+02  0.00000000000E+00  0.0000E+00  9.0
      -11   -1    0    0    0    0  0.00000000000E+00  0.00000000000E+00 -8.07855169440E+01  8.07855169440E+01  0.00000000000E+00  0.0000E+00  9.0
       24    2    1    2    0    0  8.05198394680E+01  4.38497861308E+01  4.34431495722E+00  1.24838103555E+02  8.46134193566E+01  4.6167E-14  9.0
      -24    2    1    2    0    0 -8.05198394680E+01 -4.38497861308E+01  1.60983738799E+02  2.02060984087E+02  8.06636773345E+01  7.5655E-14  9.0
       -3    1    3    3    0  500 -3.34366739551E+00  3.64822233788E+01  1.57560356121E+01  3.98796363138E+01  0.00000000000E+00  0.0000E+00  9.0
        4    1    3    3  500    0  8.38635068635E+01  7.36756275193E+00 -1.14117206549E+01  8.49584672416E+01  5.87386917370E-01  0.0000E+00  9.0
       13    1    4    4    0    0 -1.54836971298E+01 -5.23050923304E+01  9.14089947373E+01  1.06448029817E+02  1.05700000000E-01  0.0000E+00  9.0
      -14    1    4    4    0    0 -6.50361423382E+01  8.45530619966E+00  6.95747440614E+01  9.56129542707E+01  0.00000000000E+00  0.0000E+00  9.0
</event>
<event>
 8    1   5.1859766E+00   4.9390000E+02  -1.0000000E+00   9.3630000E-02
       11   -1    0    0    0    0  0.00000000000E+00  0.00000000000E+00  2.43917402410E+02  2.43917402410E+02  0.00000000000E+00  0.0000E+00  9.0
      -11   -1    0    0    0    0  0.00000000000E+00  0.00000000000E+00 -2.49998859650E+02  2.49998859650E+02  0.00000000000E+00  0.0000E+00  9.0
       24    2    1    2    0    0 -3.31827768693E+01  1.64165818214E+01 -2.33756514364E+02  2.49992250480E+02  8.05196650095E+01  6.0510E-14  9.0
      -24    2    1    2    0    0  3.31827768693E+01 -1.64165818214E+01  2.27675057124E+02  2.43924011578E+02  7.93245923305E+01  2.6970E-13  9.0
       -3    1    3    3    0  500 -5.14003983460E+01  3.53176135985E+01 -1.64876760026E+02  1.76277283780E+02  0.00000000000E+00  0.0000E+00  9.0
        4    1    3    3  500    0  1.82176214766E+01 -1.89010317771E+01 -6.88797543382E+01  7.37149667000E+01  5.87386917370E-01  0.0000E+00  9.0
        3    1    4    4  504    0  5.06462628709E+01  1.04699682921E+01  1.72735397231E+02  1.80311346385E+02  0.00000000000E+00  0.0000E+00  9.0
       -4    1    4    4    0  504 -1.74634860016E+01 -2.68865501135E+01  5.49396598932E+01  6.36126651926E+01  5.87386917370E-01  0.0000E+00  9.0
</event>
<event>
 8    1   5.1859766E+00   4.9930000E+02  -1.0000000E+00   9.3510000E-02
       11   -1    0    0    0    0  0.00000000000E+00  0.00000000000E+00  2.49961201750E+02  2.49961201750E+02  0.00000000000E+00  0.0000E+00  9.0
      -11   -1    0    0    0    0  0.00000000000E+00  0.00000000000E+00 -2.49362799880E+02  2.49362799880E+02  0.00000000000E+00  0.0000E+00  9.0
       24    2    1    2    0    0  6.89809690577E+01  2.49093923257E+01 -2.23610813888E+02  2.50038785645E+02  8.44911020224E+01  1.4740E-14  9.0
      -24    2    1    2    0    0 -6.89809690577E+01 -2.49093923257E+01  2.24209215758E+02  2.49285215988E+02  8.05884269679E+01  1.2061E-13  9.0
       -1    1    3    3    0  500  6.89094228128E+01  2.39813998147E+01 -8.75190829952E+01  1.13943872050E+02  0.00000000000E+00  0.0000E+00  9.0
        2    1    3    3  500    0  7.15462448646E-02  9.27992510952E-01 -1.36091730893E+02  1.36094913595E+02  0.00000000000E+00  0.0000E+00  9.0
        1    1    4    4  504    0 -2.31888602849E+01 -1.13847100737E+01  6.82530747952E+00  2.67192755696E+01  0.00000000000E+00  0.0000E+00  9.0
       -2    1    4    4    0  504 -4.57921087728E+01 -1.35246822520E+01  2.17383908278E+02  2.22565940418E+02  0.00000000000E+00  0.0000E+00  9.0
</event>
<event>
 8    1   5.1859766E+00   4.8560000E+02  -1.0000000E+00   9.3820000E-02
       11   -1    0    0    0    0  0.00000000000E+00  0.00000000000E+00  2.49829557020E+02  2.49829557020E+02  0.00000000000E+00  0.0000E+00  9.0
      -11   -1    0    0    0    0  0.00000000000E+00  0.00000000000E+00 -2.35933112710E+02  2.35933112710E+02  0.00000000000E+00  0.0000E+00  9.0
       24    2    1    2    0    0 -8.98060375172E+01  5.24286223508E+01 -1.97005299219E+02  2.37013750528E+02  8.09354384840E+01  5.7424E-13  9.0
      -24    2    1    2    0    0  8.98060375172E+01 -5.24286223508E+01  2.10901743539E+02  2.48748919200E+02  8.11331902452E+01  6.6376E-15  9.0
       -1    1    3    3    0  500 -9.93267976525E+01  3.15138491824E+01 -1.81515665073E+02  2.09300912777E+02  0.00000000000E+00  0.0000E+00  9.0
        2    1    3    3  500    0  9.52076013527E+00  2.09147731683E+01 -1.54896341460E+01  2.77128377510E+01  0.00000000000E+00  0.0000E+00  9.0
        1    1    4    4  504    0 -1.50948738346E+01 -1.24559036060E+01  2.85745286166E+01  3.46339203149E+01  0.00000000000E+00  0.0000E+00  9.0
       -2    1    4    4    0  504  1.04900911352E+02 -3.99727187448E+01  1.82327214923E+02  2.14114998885E+02  0.00000000000E+00  0.0000E+00  9.0
</event>
<event>
 8    1   5.1859766E+00   4.9840000E+02  -1.0000000E+00   9.3530000E-02
       11   -1    0    0    0    0  0.00000000000E+00  0.00000000000E+00  2.49317204270E+02  2.49317204270E+02  0.00000000000E+00  0.0000E+00  9.0
      -11   -1    0    0    0    0  0.00000000000E+00  0.00000000000E+00 -2.49099722550E+02  2.49099722550E+02  0.00000000000E+00  0.0000E+00  9.0
       24    2    1    2    0    0 -1.25731514416E+02 -1.10976441613E+02 -1.66662434964E+02  2.49388122194E+02  7.93340025012E+01  1.5124E-13  9.0
      -24    2    1    2    0    0  1.25731514416E+02  1.10976441613E+02  1.66879916684E+02  2.49028804623E+02  7.77319408554E+01  9.6185E-14  9.0
       -1    1    3    3    0  500 -8.28025213043E+01 -1.15033308281E+02 -1.18530095548E+02  1.84765535474E+02  0.00000000000E+00  0.0000E+00  9.0
        2    1    3    3  500    0 -4.29289931120E+01  4.05686666739E+00 -4.81323394159E+01  6.46225867203E+01  0.00000000000E+00  0.0000E+00  9.0
        1    1    4    4  504    0  8.03438974268E+01  2.11926546107E+01  6.18039991277E+01  1.03556770765E+02  0.00000000000E+00  0.0000E+00  9.0
       -2    1    4    4    0  504  4.53876169896E+01  8.97837870025E+01  1.05075917556E+02  1.45472033858E+02  0.00000000000E+00  0.0000E+00  9.0
</event>
<event>
 8    1   5.1859766E+00   5.0000000E+02  -1.0000000E+00   9.3490000E-02
       11   -1    0    0    0    0  0.00000000000E+00  0.00000000000E+00  2.49999157570E+02  2.49999157570E+02  0.00000000000E+00  0.0000E+00  9.0
      -11   -1    0    0    0    0  0.00000000000E+00  0.00000000000E+00 -2.50000000000E+02  2.50000000000E+02  0.00000000000E+00  0.0000E+00  9.0
       24    2    1    2    0    0  4.88934287296E-01 -4.36309354862E+01 -2.35105562561E+02  2.47969225454E+02  6.56522173020E+01  6.4504E-15  9.0
      -24    2    1    2    0    0 -4.88934287296E-01  4.36309354862E+01  2.35104720131E+02  2.52029932114E+02  7.96301429438E+01  7.4010E-14  9.0
       -3    1    3    3    0  500 -2.74154927523E+01 -3.70423270664E+01 -1.03826947950E+02  1.13594798991E+02  0.00000000000E+00  0.0000E+00  9.0
        4    1    3    3  500    0  2.79044270396E+01 -6.58860841981E+00 -1.31278614612E+02  1.34374426463E+02  5.87386917370E-01  0.0000E+00  9.0
        1    1    4    4  504    0  3.34037367454E+01  3.51037121193E+01  8.43572862546E+01  9.72842843287E+01  0.00000000000E+00  0.0000E+00  9.0
       -2    1    4    4    0  504 -3.38926710327E+01  8.52722336689E+00  1.50747433877E+02  1.54745647785E+02  0.00000000000E+00  0.0000E+00  9.0
</event>
<event>
 8    1   5.1859766E+00   4.9880000E+02  -1.0000000E+00   9.3520000E-02
       11   -1    0    0    0    0  0.00000000000E+00  0.00000000000E+00  2.49999851900E+02  2.49999851900E+02  0.00000000000E+00  0.0000E+00  9.0
      -11   -1    0    0    0    0  0.00000000000E+00  0.00000000000E+00 -2.48788734250E+02  2.48788734250E+02  0.00000000000E+00  0.0000E+00  9.0
       24    2    1    2    0    0  7.01237774963E+01  2.23654380501E+02 -2.94686493799E+01  2.49424310243E+02  8.00341124559E+01  1.0469E-13  9.0
      -24    2    1    2    0    0 -7.01237774963E+01 -2.23654380501E+02  3.06797670369E+01  2.49364275905E+02  7.93893437720E+01  3.7316E-15  9.0
       -3    1    3    3    0  500  8.11011731320E+01  1.31885298272E+02 -2.55162877789E+01  1.56914668293E+02  0.00000000000E+00  0.0000E+00  9.0
        4    1    3    3  500    0 -1.09773956357E+01  9.17690822292E+01 -3.95236160099E+00  9.25096419501E+01  5.87386917370E-01  0.0000E+00  9.0
       13    1    4    4    0    0 -3.36332190349E+01 -1.50345588807E+02 -1.63578250414E+01  1.54927657663E+02  1.05700000000E-01  0.0000E+00  9.0
      -14    1    4    4    0    0 -3.64905584613E+01 -7.33087916941E+01  4.70375920784E+01  9.44366182421E+01  0.00000000000E+00  0.0000E+00  9.0
</event>
<event>
 8    1   5.1859766E+00   4.6510000E+02  -1.0000000E+00   9.4300000E-02
       11   -1    0    0    0    0  0.00000000000E+00  0.00000000000E+00  2.36318772420E+02  2.36318772420E+02  0.00000000000E+00  0.0000E+00  9.0
      -11   -1    0    0    0    0  0.00000000000E+00  0.00000000000E+00 -2.28890459060E+02  2.28890459060E+02  0.00000000000E+00  0.0000E+00  9.0
       24    2    1    2    0    0 -5.49196203228E+01  9.28020584256E+01 -1.86044220033E+02  2.29107609873E+02  7.90535157315E+01  4.0254E-14  9.0
      -24    2    1    2    0    0  5.49196203228E+01 -9.28020584256E+01  1.93472533393E+02  2.36101621606E+02  8.17555368329E+01  6.4237E-14  9.0
       -3    1    3    3    0  500 -5.00010911936E+01  6.37282131678E+01 -6.31104637803E+01  1.02685563312E+02  0.00000000000E+00  0.0000E+00  9.0
        4    1    3    3  500    0 -4.91852912921E+00  2.90738452579E+01 -1.22933756253E+02  1.26422046561E+02  5.87386917370E-01  0.0000E+00  9.0
        1    1    4    4  504    0  2.70803286442E+01  7.29134770360E+00  2.21407720324E+01  3.57312431494E+01  0.00000000000E+00  0.0000E+00  9.0
       -2    1    4    4    0  504  2.78392916786E+01 -1.00093406129E+02  1.71331761361E+02  2.00370378456E+02  0.00000000000E+00  0.0000E+00  9.0
</event>
<event>
 8    1   5.1859766E+00   4.9800000E+02  -1.0000000E+00   9.3540000E-02
       11   -1    0    0    0    0  0.00000000000E+00  0.00000000000E+00  2.49999809950E+02  2.49999809950E+02  0.00000000000E+00  0.0000E+00  9.0
      -11   -1    0    0    0    0  0.00000000000E+00  0.00000000000E+00 -2.47975985920E+02  2.47975985920E+02  0.00000000000E+00  0.0000E+00  9.0
       24    2    1    2    0    0  4.53919657450E+00 -1.89827771723E+02 -1.40438891242E+02  2.47426604555E+02  7.37675758394E+01  2.2238E-14  9.0
      -24    2    1    2    0    0 -4.53919657450E+00  1.89827771723E+02  1.42462715272E+02  2.50549191316E+02  8.01503886675E+01  2.6335E-14  9.0
      -13    1    3    3    0    0  2.22959486818E+01 -1.96228202166E+01 -7.24409254664E+00  3.05720861275E+01  1.05700000000E-01  0.0000E+00  9.0
       14    1    3    3    0    0 -1.77567521072E+01 -1.70204951507E+02 -1.33194798696E+02  2.16854518427E+02  0.00000000000E+00  0.0000E+00  9.0
        3    1    4    4  500    0 -3.07120784027E+01  1.66333822120E+02  1.29629687495E+02  2.13105673366E+02  0.00000000000E+00  0.0000E+00  9.0
       -4    1    4    4    0  500  2.61728818282E+01  2.34939496035E+01  1.28330277775E+01  3.74435179503E+01  5.87386917370E-01  0.0000E+00  9.0
</event>
<event>
 8    1   5.1859766E+00   4.1980000E+02  -1.0000000E+00   9.5470000E-02
       11   -1    0    0    0    0  0.00000000000E+00  0.00000000000E+00  1.81115781670E+02  1.81115781670E+02  0.00000000000E+00  0.0000E+00  9.0
      -11   -1    0    0    0    0  0.00000000000E+00  0.00000000000E+00 -2.43209659060E+02  2.43209659060E+02  0.00000000000E+00  0.0000E+00  9.0
       24    2    1    2    0    0 -2.49578901200E+01  1.10031082592E+01 -2.25083607121E+02  2.40285640520E+02  7.95650311039E+01  1.0310E-14  9.0
      -24    2    1    2    0    0  2.49578901200E+01 -1.10031082592E+01  1.62989729731E+02  1.84039800216E+02  8.10001937949E+01  4.3374E-14  9.0
       -3    1    3    3    0  500  1.01465048657E+01  3.18054293360E+01 -1.60151938301E+02  1.63594560538E+02  0.00000000000E+00  0.0000E+00  9.0
        4    1    3    3  500    0 -3.51043949857E+01 -2.08023210767E+01 -6.49316688209E+01  7.66910799816E+01  5.87386917370E-01  0.0000E+00  9.0
       13    1    4    4    0    0  5.42195705496E+01 -1.01178506850E+00  9.59858905439E+01  1.10245579937E+02  1.05700000000E-01  0.0000E+00  9.0
      -14    1    4    4    0    0 -2.92616804296E+01 -9.99132319073E+00  6.70038391876E+01  7.37942202787E+01  0.00000000000E+00  0.0000E+00  9.0
</event>
<event>
 8    1   5.1859766E+00   4.9540000E+02  -1.0000000E+00   9.3590000E-02
       11   -1    0    0    0    0  0.00000000000E+00  0.00000000000E+00  2.48624187010E+02  2.48624187010E+02  0.00000000000E+00  0.0000E+00  9.0
      -11   -1    0    0    0    0  0.00000000000E+00  0.00000000000E+00 -2.46808753730E+02  2.46808753730E+02  0.00000000000E+00  0.0000E+00  9.0
       24    2    1    2    0    0  5.04653132240E+00  9.92722311433E+00 -2.33455346496E+02  2.47664897740E+02  8.19297597216E+01  1.3332E-13  9.0
      -24    2    1    2    0    0 -5.04653132240E+00 -9.92722311433E+00  2.35270779776E+02  2.47768042990E+02  7.68937323417E+01  4.9362E-13  9.0
       -1    1    3    3    0  500 -2.68772970321E-01  4.56377346296E+01 -1.48537073312E+02  1.55390273856E+02  0.00000000000E+00  0.0000E+00  9.0
        2    1    3    3  500    0  5.31530429272E+00 -3.57105115152E+01 -8.49182731838E+01  9.22746238840E+01  0.00000000000E+00  0.0000E+00  9.0
        3    1    4    4  504    0  1.03951586524E+01  2.17455757134E+01  2.56182207765E+01  3.51741755023E+01  0.00000000000E+00  0.0000E+00  9.0
       -4    1    4    4    0  504 -1.54416899748E+01 -3.16727988277E+01  2.09652559000E+02  2.12593867488E+02  5.87386917370E-01  0.0000E+00  9.0
</event>
<event>
 8    1   5.1859766E+00   4.9660000E+02  -1.0000000E+00   9.3570000E-02
       11   -1    0    0    0    0  0.00000000000E+00  0.00000000000E+00  2.49999377400E+02  2.49999377400E+02  0.00000000000E+00  0.0000E+00  9.0
      -11   -1    0    0    0    0  0.00000000000E+00  0.00000000000E+00 -2.46658037270E+02  2.46658037270E+02  0.00000000000E+00  0.0000E+00  9.0
       24    2    1    2    0    0  2.44461841592E+01 -1.90413166609E+01 -2.33692049756E+02  2.48979097359E+02  8.01150993403E+01  2.0954E-14  9.0
      -24    2    1    2    0    0 -2.44461841592E+01  1.90413166609E+01  2.37033389896E+02  2.47678317313E+02  6.48038060682E+01  9.1044E-14  9.0
      -13    1    3    3    0    0 -2.32367634652E+01 -9.52800450707E+00 -1.50814785372E+02  1.52891597891E+02  1.05700000000E-01  0.0000E+00  9.0
       14    1    3    3    0    0  4.76829476244E+01 -9.51331215382E+00 -8.28772643840E+01  9.60874994682E+01  0.00000000000E+00  0.0000E+00  9.0
        3    1    4    4  500    0 -4.36429555924E+01  2.53330645135E+01  1.47534625248E+02  1.55926063817E+02  0.00000000000E+00  0.0000E+00  9.0
       -4    1    4    4    0  500  1.91967714332E+01 -6.29174785261E+00  8.94987646486E+01  9.17522534956E+01  5.87386917370E-01  0.0000E+00  9.0
</event>
<event>
 8    1   5.1859766E+00   4.2750000E+02  -1.0000000E+00   9.5260000E-02
       11   -1    0    0    0    0  0.00000000000E+00  0.00000000000E+00  2.02660576630E+02  2.02660576630E+02  0.00000000000E+00  0.0000E+00  9.0
      -11   -1    0    0    0    0  0.00000000000E+00  0.00000000000E+00 -2.25458903090E+02  2.25458903090E+02  0.00000000000E+00  0.0000E+00  9.0
       24    2    1    2    0    0 -4.02413568537E+01  9.36809141051E+01 -1.82968965298E+02  2.24786988670E+02  8.15847261685E+01  1.0320E-13  9.0
      -24    2    1    2    0    0  4.02413568537E+01 -9.36809141051E+01  1.60170638838E+02  2.03332491053E+02  7.27597959238E+01  2.3291E-13  9.0
       -1    1    3    3    0  500  9.27189562204E-01  6.05518952174E+01 -4.05519517734E+01  7.28824566513E+01  0.00000000000E+00  0.0000E+00  9.0
        2    1    3    3  500    0 -4.11685464159E+01  3.31290188878E+01 -1.42417013525E+02  1.51904532019E+02  0.00000000000E+00  0.0000E+00  9.0
        1    1    4    4  504    0  4.38819178062E+01 -7.68740831627E+01  1.63399868126E+02  1.85835314933E+02  0.00000000000E+00  0.0000E+00  9.0
       -2    1    4    4    0  504 -3.64056095251E+00 -1.68068309424E+01 -3.22922928817E+00  1.74971761199E+01  0.00000000000E+00  0.0000E+00  9.0
</event>
<event>
 8    1   5.1859766E+00   4.9430000E+02  -1.0000000E+00   9.3620000E-02
       11   -1    0    0    0    0  0.00000000000E+00  0.00000000000E+00  2.44298451780E+02  2.44298451780E+02  0.00000000000E+00  0.0000E+00  9.0
      -11   -1    0    0    0    0  0.00000000000E+00  0.00000000000E+00 -2.49999995450E+02  2.49999995450E+02  0.00000000000E+00  0.0000E+00  9.0
       24    2    1    2    0    0 -2.34294752609E+01  2.49720201168E+01 -2.34303839319E+02  2.49752239739E+02  7.94062342356E+01  2.5664E-14  9.0
      -24    2    1    2    0    0  2.34294752609E+01 -2.49720201168E+01  2.28602295649E+02  2.44546207481E+02  7.98203978798E+01  6.1833E-14  9.0
       -1    1    3    3    0  500 -3.11871599141E+01 -2.10735581406E+01 -7.77260841199E+01  8.63601641315E+01  0.00000000000E+00  0.0000E+00  9.0
        2    1    3    3  500    0  7.75768465315E+00  4.60455782574E+01 -1.56577755199E+02  1.63392075608E+02  0.00000000000E+00  0.0000E+00  9.0
        1    1    4    4  504    0  1.38791514243E+01 -4.24283609521E+01  6.00586991753E+01  7.48321054359E+01  0.00000000000E+00  0.0000E+00  9.0
       -2    1    4    4    0  504  9.55032383662E+00  1.74563408353E+01  1.68543596473E+02  1.69714102045E+02  0.00000000000E+00  0.0000E+00  9.0
</event>
<event>
 8    1   5.1859766E+00   4.5940000E+02  -1.0000000E+00   9.4440000E-02
       11   -1    0    0    0    0  0.00000000000E+00  0.00000000000E+00  2.50000000000E+02  2.50000000000E+02  0.00000000000E+00  0.0000E+00  9.0
      -11   -1    0    0    0    0  0.00000000000E+00  0.00000000000E+00 -2.11054604670E+02  2.11054604670E+02  0.00000000000E+00  0.0000E+00  9.0
       24    2    1    2    0    0 -1.19699511170E+01  5.05179303858E+01 -1.89952731277E+02  2.12600789004E+02  8.01355997372E+01  6.8554E-14  9.0
      -24    2    1    2    0    0  1.19699511170E+01 -5.05179303858E+01  2.28898126597E+02  2.48453815670E+02  8.14837722561E+01  1.0516E-13  9.0
       -3    1    3    3    0  500 -5.45103727062E+00  5.31980303561E+01 -5.24119632813E+01  7.48782888166E+01  0.00000000000E+00  0.0000E+00  9.0
        4    1    3    3  500    0 -6.51891384635E+00 -2.68009997028E+00 -1.37540767996E+02  1.37722500188E+02  5.87386917370E-01  0.0000E+00  9.0
        3    1    4    4  504    0 -3.36299259004E+00 -6.40388800106E+01  1.06172655200E+02  1.24035964883E+02  0.00000000000E+00  0.0000E+00  9.0
       -4    1    4    4    0  504  1.53329437070E+01  1.35209496248E+01  1.22725471397E+02  1.24417850787E+02  5.87386917370E-01  0.0000E+00  9.0
</event>
<event>
 8    1   5.1859766E+00   4.5070000E+02  -1.0000000E+00   9.4650000E-02
       11   -1    0    0    0    0  0.00000000000E+00  0.00000000000E+00  2.31867150220E+02  2.31867150220E+02  0.00000000000E+00  0.0000E+00  9.0
      -11   -1    0    0    0    0  0.00000000000E+00  0.00000000000E+00 -2.19036911980E+02  2.19036911980E+02  0.00000000000E+00  0.0000E+00  9.0
       24    2    1    2    0    0 -4.75752205178E+01 -1.90940566213E+02 -7.14625764729E+01  2.22211778129E+02  7.44947855212E+01  5.3972E-14  9.0
      -24    2    1    2    0    0  4.75752205178E+01  1.90940566213E+02  8.42928147119E+01  2.28692284064E+02  8.04560796041E+01  4.0175E-14  9.0
       -1    1    3    3    0  500  3.09524620122E+00  5.22554889980E+00 -7.70723039409E+00  9.81266073489E+00  0.00000000000E+00  0.0000E+00  9.0
        2    1    3    3  500    0 -5.06704667191E+01 -1.96166115113E+02 -6.37553460788E+01  2.12399117394E+02  0.00000000000E+00  0.0000E+00  9.0
        3    1    4    4  504    0  3.93395848378E+01  1.28135622462E+02  1.51063063902E+01  1.34887142351E+02  0.00000000000E+00  0.0000E+00  9.0
       -4    1    4    4    0  504  8.23563568005E+00  6.28049437516E+01  6.91865083217E+01  9.38051417132E+01  5.87386917370E-01  0.0000E+00  9.0
</event>
<event>
 8    1   5.1859766E+00   4.8650000E+02  -1.0000000E+00   9.3790000E-02
       11   -1    0    0    0    0  0.00000000000E+00  0.00000000000E+00  2.44012870570E+02  2.44012870570E+02  0.00000000000E+00  0.0000E+00  9.0
      -11   -1    0    0    0    0  0.00000000000E+00  0.00000000000E+00 -2.42482961950E+02  2.42482961950E+02  0.00000000000E+00  0.0000E+00  9.0
       24    2    1    2    0    0  1.49081122862E+02  5.42081451701E+01 -1.64594587048E+02  2.42723263807E+02  8.16057627320E+01  2.7845E-13  9.0
      -24    2    1    2    0    0 -1.49081122862E+02 -5.42081451701E+01  1.66124495668E+02  2.43772568707E+02  8.16334061315E+01  3.5238E-14  9.0
      -13    1    3    3    0    0  6.07177496585E+01  3.65292228318E+01 -1.26278895445E+02  1.44801242576E+02  1.05700000000E-01  0.0000E+00  9.0
       14    1    3    3    0    0  8.83633732031E+01  1.76789223383E+01 -3.83156916028E+01  9.79220212306E+01  0.00000000000E+00  0.0000E+00  9.0
       13    1    4    4    0    0  7.57278185809E+00 -6.05612708418E+00  2.73657512034E+01  2.90330710010E+01  1.05700000000E-01  0.0000E+00  9.0
      -14    1    4    4    0    0 -1.56653904720E+02 -4.81520180859E+01  1.38758744465E+02  2.14739497706E+02  0.00000000000E+00  0.0000E+00  9.0
</event>
<event>
 8    1   5.1859766E+00   4.8810000E+02  -1.0000000E+00   9.3760000E-02
       11   -1    0    0    0    0  0.00000000000E+00  0.00000000000E+00  2.38559786470E+02  2.38559786470E+02  0.00000000000E+00  0.0000E+00  9.0
      -11   -1    0    0    0    0  0.00000000000E+00  0.00000000000E+00 -2.49644546470E+02  2.49644546470E+02  0.00000000000E+00  0.0000E+00  9.0
       24    2    1    2    0    0 -2.09582280266E+01 -1.29541552973E+01 -2.34737266204E+02  2.49144735824E+02  7.97775518715E+01  9.9024E-14  9.0
      -24    2    1    2    0    0  2.09582280266E+01  1.29541552973E+01  2.23652506204E+02  2.39059597123E+02  8.07588384253E+01  1.4572E-13  9.0
       -3    1    3    3    0  500 -4.39060279772E+01 -6.59634921211E+00 -7.13914064902E+01  8.40713032866E+01  0.00000000000E+00  0.0000E+00  9.0
        4    1    3    3  500    0  2.29477999505E+01 -6.35780608518E+00 -1.63345859714E+02  1.65073432538E+02  5.87386917370E-01  0.0000E+00  9.0
        3    1    4    4  504    0  2.76992140839E+01 -2.92586190605E+01  8.70169082108E+01  9.58918951985E+01  0.00000000000E+00  0.0000E+00  9.0
       -4    1    4    4    0  504 -6.74098605726E+00  4.22127743577E+01  1.36635597993E+02  1.43167701925E+02  5.87386917370E-01  0.0000E+00  9.0
</event>
<event>
 8    1   5.1859766E+00   3.6100000E+02  -1.0000000E+00   9.7240000E-02
       11   -1    0    0    0    0  0.00000000000E+00  0.00000000000E+00  2.37846523800E+02  2.37846523800E+02  0.00000000000E+00  0.0000E+00  9.0
      -11   -1    0    0    0    0  0.00000000000E+00  0.00000000000E+00 -1.36947428810E+02  1.36947428810E+02  0.00000000000E+00  0.0000E+00  9.0
       24    2    1    2    0    0  1.01251727551E+02 -1.25111546497E+01 -7.63782113477E+01  1.54613230276E+02  8.75395823900E+01  1.5021E-14  9.0
      -24    2    1    2    0    0 -1.01251727551E+02  1.25111546497E+01  1.77277306340E+02  2.20180722330E+02  8.15099124036E+01  7.3374E-15  9.0
       -3    1    3    3    0  500  7.77885036587E+00  2.43766948515E+01  4.04273863871E+00  2.59051635895E+01  0.00000000000E+00  0.0000E+00  9.0
        4    1    3    3  500    0  9.34728771848E+01 -3.68878495013E+01 -8.04209499864E+01  1.28708066686E+02  5.87386917370E-01  0.0000E+00  9.0
        3    1    4    4  504    0  1.38431545350E+01 -2.12715051226E+00  1.33539556039E+01  1.93516362888E+01  0.00000000000E+00  0.0000E+00  9.0
       -4    1    4    4    0  504 -1.15094882086E+02  1.46383051620E+01  1.63923350736E+02  2.00829086041E+02  5.87386917370E-01  0.0000E+00  9.0
</event>
<event>
 8    1   5.1859766E+00   4.7120000E+02  -1.0000000E+00   9.4150000E-02
       11   -1    0    0    0    0  0.00000000000E+00  0.00000000000E+00  2.49994326380E+02  2.49994326380E+02  0.00000000000E+00  0.0000E+00  9.0
      -11   -1    0    0    0    0  0.00000000000E+00  0.00000000000E+00 -2.21993091850E+02  2.21993091850E+02  0.00000000000E+00  0.0000E+00  9.0
       24    2    1    2    0    0 -3.28907382336E+01  4.27123104976E+01 -2.01070207605E+02  2.23144301733E+02  8.03617376598E+01  7.8936E-14  9.0
      -24    2    1    2    0    0  3.28907382336E+01 -4.27123104976E+01  2.29071442145E+02  2.48843116504E+02  8.08889911860E+01  5.1761E-14  9.0
      -13    1    3    3    0    0 -5.36163361928E+01  4.04294030656E+01 -1.03532090850E+02  1.23402403329E+02  1.05700000000E-01  0.0000E+00  9.0
       14    1    3    3    0    0  2.07255979592E+01  2.28290743207E+00 -9.75381167549E+01  9.97418984039E+01  0.00000000000E+00  0.0000E+00  9.0
        3    1    4    4  500    0 -1.57939637994E+01 -3.98054797819E+01  6.63589841265E+01  7.89774669603E+01  0.00000000000E+00  0.0000E+00  9.0
       -4    1    4    4    0  500  4.86847020331E+01 -2.90683071577E+00  1.62712458019E+02  1.69865649543E+02  5.87386917370E-01  0.0000E+00  9.0
</event>
<event>
 8    1   5.1859766E+00   4.8800000E+02  -1.0000000E+00   9.3760000E-02
       11   -1    0    0    0    0  0.00000000000E+00  0.00000000000E+00  2.49999999820E+02  2.49999999820E+02  0.00000000000E+00  0.0000E+00  9.0
      -11   -1    0    0    0    0  0.00000000000E+00  0.00000000000E+00 -2.38170303620E+02  2.38170303620E+02  0.00000000000E+00  0.0000E+00  9.0
       24    2    1    2    0    0 -1.54463914593E+02 -1.41807271886E+02 -9.11134943251E+01  2.41638848276E+02  7.82257047075E+01  1.5476E-13  9.0
      -24    2    1    2    0    0  1.54463914593E+02  1.41807271886E+02  1.02943190526E+02  2.46531455158E+02  7.88165885808E+01  1.0916E-13  9.0
       -1    1    3    3    0  500 -1.10588261241E+02 -4.87314638350E+01 -5.18722142891E+01  1.31511390027E+02  0.00000000000E+00  0.0000E+00  9.0
        2    1    3    3  500    0 -4.38756533521E+01 -9.30758080509E+01 -3.92412800360E+01  1.10127458248E+02  0.00000000000E+00  0.0000E+00  9.0
       13    1    4    4    0    0  9.94610321620E+00  2.29125692338E+01  4.35285675937E+01  5.01862348392E+01  1.05700000000E-01  0.0000E+00  9.0
      -14    1    4    4    0    0  1.44517811376E+02  1.18894702652E+02  5.94146229323E+01  1.96345220319E+02  0.00000000000E+00  0.0000E+00  9.0
</event>
<event>
 8    1   5.1859766E+00   4.5440000E+02  -1.0000000E+00   9.4560000E-02
       11   -1    0    0    0    0  0.00000000000E+00  0.00000000000E+00  2.49122244320E+02  2.49122244320E+02  0.00000000000E+00  0.0000E+00  9.0
      -11   -1    0    0    0    0  0.00000000000E+00  0.00000000000E+00 -2.07171802780E+02  2.07171802780E+02  0.00000000000E+00  0.0000E+00  9.0
       24    2    1    2    0    0 -5.72750956072E+01 -2.90969877232E+01 -1.85571534735E+02  2.10769196741E+02  7.65492555109E+01  6.3930E-14  9.0
      -24    2    1    2    0    0  5.72750956072E+01  2.90969877232E+01  2.27521976275E+02  2.45524850358E+02  6.62505183675E+01  7.9750E-14  9.0
       -3    1    3    3    0  500 -2.58762681811E+01  1.52369877332E+00 -6.94361203738E+00  2.68349894924E+01  0.00000000000E+00  0.0000E+00  9.0
        4    1    3    3  500    0 -3.13988274261E+01 -3.06206864965E+01 -1.78627922698E+02  1.83934207248E+02  5.87386917370E-01  0.0000E+00  9.0
        3    1    4    4  504    0  2.34812196139E+01  4.68472966877E+01  1.07771756173E+02  1.19836506583E+02  0.00000000000E+00  0.0000E+00  9.0
       -4    1    4    4    0  504  3.37938759933E+01 -1.77503089645E+01  1.19750220103E+02  1.25688343775E+02  5.87386917370E-01  0.0000E+00  9.0
</event>
<event>
 8    1   5.1859766E+00   4.2290000E+02  -1.0000000E+00   9.5380000E-02
       11   -1    0    0    0    0  0.00000000000E+00  0.00000000000E+00  2.47027610720E+02  2.47027610720E+02  0.00000000000E+00  0.0000E+00  9.0
      -11   -1    0    0    0    0  0.00000000000E+00  0.00000000000E+00 -1.80962255630E+02  1.80962255630E+02  0.00000000000E+00  0.0000E+00  9.0
       24    2    1    2    0    0 -1.27516365869E+01  7.48000470634E+01 -1.49853675825E+02  1.86446608206E+02  8.09231875104E+01  1.1499E-13  9.0
      -24    2    1    2    0    0  1.27516365869E+01 -7.48000470634E+01  2.15919030915E+02  2.41543258142E+02  7.72299577007E+01  1.0675E-14  9.0
       -1    1    3    3    0  500 -3.02854299545E+01  2.66767122684E+01 -1.21232943385E+02  1.27774335478E+02  0.00000000000E+00  0.0000E+00  9.0
        2    1    3    3  500    0  1.75337933676E+01  4.81233347950E+01 -2.86207324395E+01  5.86722727276E+01  0.00000000000E+00  0.0000E+00  9.0
        3    1    4    4  504    0 -4.85926321665E-01 -1.01365425523E+01  1.42318247972E+02  1.42679603746E+02  0.00000000000E+00  0.0000E+00  9.0
       -4    1    4    4    0  504  1.32375629086E+01 -6.46635045111E+01  7.36007829432E+01  9.88636543966E+01  5.87386917370E-01  0.0000E+00  9.0
</event>
<event>
 8    1   5.1859766E+00   4.9990000E+02  -1.0000000E+00   9.3490000E-02
       11   -1    0    0    0    0  0.00000000000E+00  0.00000000000E+00  2.49909991480E+02  2.49909991480E+02  0.00000000000E+00  0.0000E+00  9.0
      -11   -1    0    0    0    0  0.00000000000E+00  0.00000000000E+00 -2.49999881740E+02  2.49999881740E+02  0.00000000000E+00  0.0000E+00  9.0
       24    2    1    2    0    0 -1.37989608153E+02 -6.21125045504E-01 -1.91765867547E+02  2.50963429680E+02  8.46580021414E+01  1.0249E-13  9.0
      -24    2    1    2    0    0  1.37989608153E+02  6.21125045504E-01  1.91675977277E+02  2.48946443548E+02  7.86964658402E+01  4.9233E-15  9.0
       -1    1    3    3    0  500  1.09138168201E+01 -2.94694733230E+00 -2.46658908375E+01  2.71330438206E+01  0.00000000000E+00  0.0000E+00  9.0
        2    1    3    3  500    0 -1.48903424973E+02  2.32582228680E+00 -1.67099976709E+02  2.23830385860E+02  0.00000000000E+00  0.0000E+00  9.0
       13    1    4    4    0    0  1.27543022213E+01  1.99133189577E+01  6.42546872945E+00  2.45053120353E+01  1.05700000000E-01  0.0000E+00  9.0
      -14    1    4    4    0    0  1.25235305932E+02 -1.92921939122E+01  1.85250508547E+02  2.24441131513E+02  0.00000000000E+00  0.0000E+00  9.0
</event>
<event>
 8    1   5.1859766E+00   5.0000000E+02  -1.0000000E+00   9.3490000E-02
       11   -1    0    0    0    0  0.00000000000E+00  0.00000000000E+00  2.50000000000E+02  2.50000000000E+02  0.00000000000E+00  0.0000E+00  9.0
      -11   -1    0    0    0    0  0.00000000000E+00  0.00000000000E+00 -2.50000000000E+02  2.50000000000E+02  0.00000000000E+00  0.0000E+00  9.0
       24    2    1    2    0    0  1.95487760646E+01  6.88691702076E+00 -2.33803842142E+02  2.48046490294E+02  8.02074839083E+01  2.2947E-15  9.0
      -24    2    1    2    0    0 -1.95487760646E+01 -6.88691702076E+00  2.33803842142E+02  2.51953509707E+02  9.15792016872E+01  8.7030E-14  9.0
       -1    1    3    3    0  500  2.07780905561E+01  1.18016361472E+01 -2.39347071544E+02  2.40536958323E+02  0.00000000000E+00  0.0000E+00  9.0
        2    1    3    3  500    0 -1.22931449151E+00 -4.91471912645E+00  5.54322940171E+00  7.50953197016E+00  0.00000000000E+00  0.0000E+00  9.0
        3    1    4    4  504    0 -6.01514027272E+00 -4.34878565550E+01  6.32612359038E+01  7.70023346940E+01  0.00000000000E+00  0.0000E+00  9.0
       -4    1    4    4    0  504 -1.35336357919E+01  3.66009395343E+01  1.70542606238E+02  1.74951175013E+02  5.87386917370E-01  0.0000E+00  9.0
</event>
<event>
 8    1   5.1859766E+00   4.8290000E+02  -1.0000000E+00   9.3880000E-02
       11   -1    0    0    0    0  0.00000000000E+00  0.00000000000E+00  2.49818410670E+02  2.49818410670E+02  0.00000000000E+00  0.0000E+00  9.0
      -11   -1    0    0    0    0  0.00000000000E+00  0.00000000000E+00 -2.33333263590E+02  2.33333263590E+02  0.00000000000E+00  0.0000E+00  9.0
       24    2    1    2    0    0  1.78862613316E+02 -4.30868865683E+00 -1.31416650137E+02  2.37040121780E+02  8.31100725570E+01  5.0722E-14  9.0
      -24    2    1    2    0    0 -1.78862613316E+02  4.30868865683E+00  1.47901797217E+02  2.46111552473E+02  8.17652456760E+01  3.8860E-13  9.0
       -3    1    3    3    0  500  1.61616062903E+02  4.36353069221E+00 -7.65659095945E+01  1.78888598576E+02  0.00000000000E+00  0.0000E+00  9.0
        4    1    3    3  500    0  1.72465504124E+01 -8.67221934904E+00 -5.48507405421E+01  5.81515232043E+01  5.87386917370E-01  0.0000E+00  9.0
        3    1    4    4  504    0 -3.17181722446E+01  5.64903981824E+00  7.55544653014E+01  8.21366625107E+01  0.00000000000E+00  0.0000E+00  9.0
       -4    1    4    4    0  504 -1.47144441071E+02 -1.34035116140E+00  7.23473319152E+01  1.63974889962E+02  5.87386917370E-01  0.0000E+00  9.0
</event>
<event>
 8    1   5.1859766E+00   4.3950000E+02  -1.0000000E+00   9.4940000E-02
       11   -1    0    0    0    0  0.00000000000E+00  0.00000000000E+00  1.95733151890E+02  1.95733151890E+02  0.00000000000E+00  0.0000E+00  9.0
      -11   -1    0    0    0    0  0.00000000000E+00  0.00000000000E+00 -2.46693874590E+02  2.46693874590E+02  0.00000000000E+00  0.0000E+00  9.0
       24    2    1    2    0    0 -6.20894377766E+01  2.84619947326E+01 -2.19454673308E+02  2.43606297561E+02  8.07371732650E+01  7.1988E-15  9.0
      -24    2    1    2    0    0  6.20894377766E+01 -2.84619947326E+01  1.68493950608E+02  1.98820728910E+02  8.04629568512E+01  3.6365E-15  9.0
       -1    1    3    3    0  500  3.32074141694E+00 -1.59212506108E+01 -8.54861710068E+00  1.83736876784E+01  0.00000000000E+00  0.0000E+00  9.0
        2    1    3    3  500    0 -6.54101791935E+01  4.43832453434E+01 -2.10906056207E+02  2.25232609882E+02  0.00000000000E+00  0.0000E+00  9.0
        1    1    4    4  504    0  1.42087563903E+01 -2.77063172304E+01  9.17527966770E+00  3.24609693265E+01  0.00000000000E+00  0.0000E+00  9.0
       -2    1    4    4    0  504  4.78806813863E+01 -7.55677502180E-01  1.59318670940E+02  1.66359759584E+02  0.00000000000E+00  0.0000E+00  9.0
</event>
<event>
 8    1   5.1859766E+00   5.0000000E+02  -1.0000000E+00   9.3490000E-02
       11   -1    0    0    0    0  0.00000000000E+00  0.00000000000E+00  2.50000000000E+02  2.50000000000E+02  0.00000000000E+00  0.0000E+00  9.0
      -11   -1    0    0    0    0  0.00000000000E+00  0.00000000000E+00 -2.50000000000E+02  2.50000000000E+02  0.00000000000E+00  0.0000E+00  9.0
       24    2    1    2    0    0 -1.44068356932E+01 -3.41698788614E+01 -2.33605844413E+02  2.50205794749E+02  8.15849964497E+01  5.0903E-14  9.0
      -24    2    1    2    0    0  1.44068356932E+01  3.41698788614E+01  2.33605844413E+02  2.49794205254E+02  8.03138649183E+01  2.9086E-13  9.0
       -3    1    3    3    0  500 -1.75714451271E+01 -4.60815832509E+00 -3.89538104201E+00  1.85786113708E+01  0.00000000000E+00  0.0000E+00  9.0
        4    1    3    3  500    0  3.16460943393E+00 -2.95617205363E+01 -2.29710463371E+02  2.31627183378E+02  5.87386917370E-01  0.0000E+00  9.0
        1    1    4    4  504    0 -1.81203184289E+01  4.62049391197E+01  1.72870145521E+02  1.79853633690E+02  0.00000000000E+00  0.0000E+00  9.0
       -2    1    4    4    0  504  3.25271541221E+01 -1.20350602583E+01  6.07356988920E+01  6.99405715633E+01  0.00000000000E+00  0.0000E+00  9.0
</event>
<event>
 8    1   5.1859766E+00   3.0200000E+02  -1.0000000E+00   9.9430000E-02
       11   -1    0    0    0    0  0.00000000000E+00  0.00000000000E+00  2.49997245750E+02  2.49997245750E+02  0.00000000000E+00  0.0000E+00  9.0
      -11   -1    0    0    0    0  0.00000000000E+00  0.00000000000E+00 -9.12328734400E+01  9.12328734400E+01  0.00000000000E+00  0.0000E+00  9.0
       24    2    1    2    0    0 -6.27871350468E+00 -2.19455361444E+01 -6.38829976227E+01  1.05670218505E+02  8.10193118559E+01  1.8890E-14  9.0
      -24    2    1    2    0    0  6.27871350468E+00  2.19455361444E+01  2.22647369935E+02  2.35559900689E+02  7.34546572631E+01  1.1433E-13  9.0
       -1    1    3    3    0  500 -1.71841998161E+01  1.51971999415E+01 -6.28939091248E+01  6.69469597098E+01  0.00000000000E+00  0.0000E+00  9.0
        2    1    3    3  500    0  1.09054863114E+01 -3.71427360859E+01 -9.89088497928E-01  3.87232587948E+01  0.00000000000E+00  0.0000E+00  9.0
        3    1    4    4  504    0  2.33547594123E+00  4.42910890335E+01  1.94024381353E+02  1.99029182722E+02  0.00000000000E+00  0.0000E+00  9.0
       -4    1    4    4    0  504  3.94323756345E+00 -2.23455528891E+01  2.86229885816E+01  3.65307179663E+01  5.87386917370E-01  0.0000E+00  9.0
</event>
<event>
 8    1   5.1859766E+00   2.3750000E+02  -1.0000000E+00   1.0250000E-01
       11   -1    0    0    0    0  0.00000000000E+00  0.00000000000E+00  1.08829238310E+02  1.08829238310E+02  0.00000000000E+00  0.0000E+00  9.0
      -11   -1    0    0    0    0  0.00000000000E+00  0.00000000000E+00 -1.29571267590E+02  1.29571267590E+02  0.00000000000E+00  0.0000E+00  9.0
       24    2    1    2    0    0  4.55593480436E+01 -4.60824868187E-01 -7.88021218281E+01  1.21790751435E+02  8.09156732456E+01  1.7629E-13  9.0
      -24    2    1    2    0    0 -4.55593480436E+01  4.60824868187E-01  5.80600925471E+01  1.16609754461E+02  9.02828551556E+01  2.2457E-13  9.0
       -3    1    3    3    0  500  5.79380528706E+01  1.97313270340E+01 -7.65233662622E+01  9.79896362941E+01  0.00000000000E+00  0.0000E+00  9.0
        4    1    3    3  500    0 -1.23787048270E+01 -2.01921519022E+01 -2.27875556595E+00  2.38011151410E+01  5.87386917370E-01  0.0000E+00  9.0
        3    1    4    4  504    0 -1.93049362242E+01 -3.59001999014E+01 -2.97099592939E+00  4.08696921006E+01  0.00000000000E+00  0.0000E+00  9.0
       -4    1    4    4    0  504 -2.62544118194E+01  3.63610247696E+01  6.10310884765E+01  7.57400623600E+01  5.87386917370E-01  0.0000E+00  9.0
</event>
<event>
 8    1   5.1859766E+00   4.8870000E+02  -1.0000000E+00   9.3750000E-02
       11   -1    0    0    0    0  0.00000000000E+00  0.00000000000E+00  2.45643633640E+02  2.45643633640E+02  0.00000000000E+00  0.0000E+00  9.0
      -11   -1    0    0    0    0  0.00000000000E+00  0.00000000000E+00 -2.43021553560E+02  2.43021553560E+02  0.00000000000E+00  0.0000E+00  9.0
       24    2    1    2    0    0 -8.55748685115E+00 -9.01106200398E+00 -2.29341745531E+02  2.43325832150E+02  8.03454698711E+01  4.1362E-14  9.0
      -24    2    1    2    0    0  8.55748685115E+00  9.01106200398E+00  2.31963825611E+02  2.45339355054E+02  7.89287838900E+01  1.5537E-14  9.0
       -3    1    3    3    0  500 -2.09147296465E+01 -2.92895342085E+01 -4.57788501151E+01  5.82323436605E+01  0.00000000000E+00  0.0000E+00  9.0
        4    1    3    3  500    0  1.23572427954E+01  2.02784722046E+01 -1.83562895416E+02  1.85093488490E+02  5.87386917370E-01  0.0000E+00  9.0
        3    1    4    4  504    0  7.74944829437E-01 -2.16464995256E+01  1.56452265904E+01  2.67197416954E+01  0.00000000000E+00  0.0000E+00  9.0
       -4    1    4    4    0  504  7.78254202171E+00  3.06575615296E+01  2.16318599021E+02  2.18619613358E+02  5.87386917370E-01  0.0000E+00  9.0
</event>
<event>
 8    1   5.1859766E+00   5.0000000E+02  -1.0000000E+00   9.3490000E-02
       11   -1    0    0    0    0  0.00000000000E+00  0.00000000000E+00  2.49999994060E+02  2.49999994060E+02  0.00000000000E+00  0.0000E+00  9.0
      -11   -1    0    0    0    0  0.00000000000E+00  0.00000000000E+00 -2.50000000000E+02  2.50000000000E+02  0.00000000000E+00  0.0000E+00  9.0
       24    2    1    2    0    0 -2.94000204224E+00 -2.56045117977E+01 -2.31784334284E+02  2.46830720966E+02  8.08529069179E+01  1.0188E-14  9.0
      -24    2    1    2    0    0  2.94000204224E+00  2.56045117977E+01  2.31784328344E+02  2.53169273096E+02  9.85214257801E+01  3.6081E-14  9.0
       -3    1    3    3    0  500  2.23649011884E-01 -1.22785972148E+01  2.17358562093E+00  1.24715052378E+01  0.00000000000E+00  0.0000E+00  9.0
        4    1    3    3  500    0 -3.16365105412E+00 -1.33259145829E+01 -2.33957919905E+02  2.34359215729E+02  5.87386917370E-01  0.0000E+00  9.0
        1    1    4    4  504    0  4.88376722395E+01  2.67189308242E+01  1.18028946008E+02  1.30498473515E+02  0.00000000000E+00  0.0000E+00  9.0
       -2    1    4    4    0  504 -4.58976701973E+01 -1.11441902652E+00  1.13755382336E+02  1.22670799580E+02  0.00000000000E+00  0.0000E+00  9.0
</event>
<event>
 8    1   5.1859766E+00   4.9760000E+02  -1.0000000E+00   9.3540000E-02
       11   -1    0    0    0    0  0.00000000000E+00  0.00000000000E+00  2.49706518520E+02  2.49706518520E+02  0.00000000000E+00  0.0000E+00  9.0
      -11   -1    0    0    0    0  0.00000000000E+00  0.00000000000E+00 -2.47907600720E+02  2.47907600720E+02  0.00000000000E+00  0.0000E+00  9.0
       24    2    1    2    0    0  1.27332451630E+01  5.73622000721E+00 -2.33904528631E+02  2.48448210346E+02  8.25841689283E+01  4.0602E-16  9.0
      -24    2    1    2    0    0 -1.27332451630E+01 -5.73622000721E+00  2.35703446421E+02  2.49165908895E+02  7.95769800169E+01  5.2324E-14  9.0
       -1    1    3    3    0  500  3.10334877389E+01  3.64485839938E+01 -1.40825689060E+02  1.48739541937E+02  0.00000000000E+00  0.0000E+00  9.0
        2    1    3    3  500    0 -1.83002425759E+01 -3.07123639866E+01 -9.30788395710E+01  9.97086684089E+01  0.00000000000E+00  0.0000E+00  9.0
        1    1    4    4  504    0 -2.08184448043E+01  3.40883866747E+01  1.25888884853E+02  1.32073604780E+02  0.00000000000E+00  0.0000E+00  9.0
       -2    1    4    4    0  504  8.08519964128E+00 -3.98246066819E+01  1.09814561568E+02  1.17092304115E+02  0.00000000000E+00  0.0000E+00  9.0
</event>
<event>
 8    1   5.1859766E+00   4.7390000E+02  -1.0000000E+00   9.4090000E-02
       11   -1    0    0    0    0  0.00000000000E+00  0.00000000000E+00  2.49994897790E+02  2.49994897790E+02  0.00000000000E+00  0.0000E+00  9.0
      -11   -1    0    0    0    0  0.00000000000E+00  0.00000000000E+00 -2.24627768950E+02  2.24627768950E+02  0.00000000000E+00  0.0000E+00  9.0
       24    2    1    2    0    0 -5.40072956719E+01  5.38586056074E+01 -1.98085707275E+02  2.27396144579E+02  8.15691225812E+01  1.0955E-13  9.0
      -24    2    1    2    0    0  5.40072956719E+01 -5.38586056074E+01  2.23452836125E+02  2.47226522156E+02  7.32956062877E+01  1.5594E-13  9.0
       -3    1    3    3    0  500 -1.40338222616E+01  2.85419682160E+01 -9.83822569679E+00  3.32923835399E+01  0.00000000000E+00  0.0000E+00  9.0
        4    1    3    3  500    0 -3.99734734103E+01  2.53166373915E+01 -1.88247481579E+02  1.94103761039E+02  5.87386917370E-01  0.0000E+00  9.0
        3    1    4    4  504    0  1.63617981805E+01 -4.17960598405E+01  4.18432928197E+01  6.13635087971E+01  0.00000000000E+00  0.0000E+00  9.0
       -4    1    4    4    0  504  3.76454974914E+01 -1.20625457669E+01  1.81609543306E+02  1.85863013359E+02  5.87386917370E-01  0.0000E+00  9.0
</event>
<event>
 8    1   5.1859766E+00   4.9270000E+02  -1.0000000E+00   9.3650000E-02
       11   -1    0    0    0    0  0.00000000000E+00  0.00000000000E+00  2.42907775390E+02  2.42907775390E+02  0.00000000000E+00  0.0000E+00  9.0
      -11   -1    0    0    0    0  0.00000000000E+00  0.00000000000E+00 -2.49818022260E+02  2.49818022260E+02  0.00000000000E+00  0.0000E+00  9.0
       24    2    1    2    0    0 -1.48123203137E+01 -5.58539293390E+00 -2.35959914573E+02  2.49577177245E+02  7.97564083248E+01  1.2251E-14  9.0
      -24    2    1    2    0    0  1.48123203137E+01  5.58539293390E+00  2.29049667693E+02  2.43148620404E+02  8.00431126754E+01  2.6486E-13  9.0
      -13    1    3    3    0    0 -1.04774119567E+01  1.88547063066E+01 -1.28856876007E+01  2.51262458129E+01  1.05700000000E-01  0.0000E+00  9.0
       14    1    3    3    0    0 -4.33490835704E+00 -2.44400992405E+01 -2.23074226972E+02  2.24450931432E+02  0.00000000000E+00  0.0000E+00  9.0
       13    1    4    4    0    0 -2.43092988370E+01 -1.76401600340E+01  1.39586461356E+02  1.42781331491E+02  1.05700000000E-01  0.0000E+00  9.0
      -14    1    4    4    0    0  3.91216191507E+01  2.32255529679E+01  8.94632063372E+01  1.00367288913E+02  0.00000000000E+00  0.0000E+00  9.0
</event>
<event>
 8    1   5.1859766E+00   5.0000000E+02  -1.0000000E+00   9.3490000E-02
       11   -1    0    0    0    0  0.00000000000E+00  0.00000000000E+00  2.49999883530E+02  2.49999883530E+02  0.00000000000E+00  0.0000E+00  9.0
      -11   -1    0    0    0    0  0.00000000000E+00  0.00000000000E+00 -2.49999999990E+02  2.49999999990E+02  0.00000000000E+00  0.0000E+00  9.0
       24    2    1    2    0    0  1.85946625485E+02  1.05796064397E+02 -9.92581858702E+01  2.49255178890E+02  8.06659901705E+01  4.4396E-15  9.0
      -24    2    1    2    0    0 -1.85946625485E+02 -1.05796064397E+02  9.92580694072E+01  2.50744704643E+02  8.51574294655E+01  1.4980E-13  9.0
      -13    1    3    3    0    0  1.40075762836E+02  9.36619531153E+01 -3.97201713873E+01  1.73122742535E+02  1.05700000000E-01  0.0000E+00  9.0
       14    1    3    3    0    0  4.58708626488E+01  1.21341112820E+01 -5.95380144829E+01  7.61324363547E+01  0.00000000000E+00  0.0000E+00  9.0
        1    1    4    4  500    0 -1.00436847452E+02 -1.04145899294E+02  6.49274629967E+01  1.58585951827E+02  0.00000000000E+00  0.0000E+00  9.0
       -2    1    4    4    0  500 -8.55097780331E+01 -1.65016510345E+00  3.43306064105E+01  9.21587528162E+01  0.00000000000E+00  0.0000E+00  9.0
</event>
<event>
 8    1   5.1859766E+00   4.8890000E+02  -1.0000000E+00   9.3740000E-02
       11   -1    0    0    0    0  0.00000000000E+00  0.00000000000E+00  2.46769824700E+02  2.46769824700E+02  0.00000000000E+00  0.0000E+00  9.0
      -11   -1    0    0    0    0  0.00000000000E+00  0.00000000000E+00 -2.42184582290E+02  2.42184582290E+02  0.00000000000E+00  0.0000E+00  9.0
       24    2    1    2    0    0  1.52059522068E+00  4.69555420806E+01 -2.22600033869E+02  2.43072125775E+02  8.55929209004E+01  3.5891E-14  9.0
      -24    2    1    2    0    0 -1.52059522068E+00 -4.69555420806E+01  2.27185276269E+02  2.45882281219E+02  8.14727642965E+01  3.1542E-14  9.0
      -13    1    3    3    0    0 -4.13620641907E+01  3.16126999483E+01 -1.15512239922E+02  1.26701507081E+02  1.05700000000E-01  0.0000E+00  9.0
       14    1    3    3    0    0  4.28826594114E+01  1.53428421323E+01 -1.07087793947E+02  1.16370618694E+02  0.00000000000E+00  0.0000E+00  9.0
        1    1    4    4  500    0  4.53599938201E+00 -4.08751755191E+01  2.32286122855E+02  2.35898703123E+02  0.00000000000E+00  0.0000E+00  9.0
       -2    1    4    4    0  500 -6.05659460269E+00 -6.08036656155E+00 -5.10084658598E+00  9.98357809595E+00  0.00000000000E+00  0.0000E+00  9.0
</event>
<event>
 8    1   5.1859766E+00   3.7520000E+02  -1.0000000E+00   9.6780000E-02
       11   -1    0    0    0    0  0.00000000000E+00  0.00000000000E+00  2.35303886320E+02  2.35303886320E+02  0.00000000000E+00  0.0000E+00  9.0
      -11   -1    0    0    0    0  0.00000000000E+00  0.00000000000E+00 -1.49533049900E+02  1.49533049900E+02  0.00000000000E+00  0.0000E+00  9.0
       24    2    1    2    0    0  1.07200624292E+01  1.16281561425E+00 -1.30376720689E+02  1.53976605200E+02  8.12061190587E+01  3.6841E-13  9.0
      -24    2    1    2    0    0 -1.07200624292E+01 -1.16281561425E+00  2.16147557099E+02  2.30860331012E+02  8.03769501554E+01  9.8549E-15  9.0
       -1    1    3    3    0  500 -2.45480107264E+01  1.80436110351E+01 -1.89254620210E+01  3.58657196013E+01  0.00000000000E+00  0.0000E+00  9.0
        2    1    3    3  500    0  3.52680731556E+01 -1.68807954209E+01 -1.11451258668E+02  1.18110885599E+02  0.00000000000E+00  0.0000E+00  9.0
        1    1    4    4  504    0 -1.67322766278E+01  6.99348329741E+00  4.12812192891E+00  1.85989053560E+01  0.00000000000E+00  0.0000E+00  9.0
       -2    1    4    4    0  504  6.01221419861E+00 -8.15629891165E+00  2.12019435170E+02  2.12261425656E+02  0.00000000000E+00  0.0000E+00  9.0
</event>
<event>
 8    1   5.1859766E+00   4.8680000E+02  -1.0000000E+00   9.3790000E-02
       11   -1    0    0    0    0  0.00000000000E+00  0.00000000000E+00  2.37062608740E+02  2.37062608740E+02  0.00000000000E+00  0.0000E+00  9.0
      -11   -1    0    0    0    0  0.00000000000E+00  0.00000000000E+00 -2.49928260270E+02  2.49928260270E+02  0.00000000000E+00  0.0000E+00  9.0
       24    2    1    2    0    0  2.42727602886E+01  1.18964163490E+01 -2.34689783526E+02  2.49543750310E+02  8.03871707019E+01  2.9880E-14  9.0
      -24    2    1    2    0    0 -2.42727602886E+01 -1.18964163490E+01  2.21824132006E+02  2.37447118702E+02  8.02776246885E+01  7.9178E-14  9.0
       -3    1    3    3    0  500  5.28725478168E+00 -3.43335565319E+01 -9.05639684553E+01  9.69978378606E+01  0.00000000000E+00  0.0000E+00  9.0
        4    1    3    3  500    0  1.89855055070E+01  4.62299728809E+01 -1.44125815071E+02  1.52545912450E+02  5.87386917370E-01  0.0000E+00  9.0
       13    1    4    4    0    0 -3.45368181153E+00  2.68996046726E+01  2.91866359744E+01  3.98420323476E+01  1.05700000000E-01  0.0000E+00  9.0
      -14    1    4    4    0    0 -2.08190784771E+01 -3.87960210216E+01  1.92637496031E+02  1.97605086354E+02  0.00000000000E+00  0.0000E+00  9.0
</event>
<event>
 8    1   5.1859766E+00   4.9990000E+02  -1.0000000E+00   9.3490000E-02
       11   -1    0    0    0    0  0.00000000000E+00  0.00000000000E+00  2.49889427800E+02  2.49889427800E+02  0.00000000000E+00  0.0000E+00  9.0
      -11   -1    0    0    0    0  0.00000000000E+00  0.00000000000E+00 -2.49999900490E+02  2.49999900490E+02  0.00000000000E+00  0.0000E+00  9.0
       24    2    1    2    0    0 -1.82945124689E+02  2.93407359890E+01 -1.47303239437E+02  2.49985541825E+02  8.04035405757E+01  2.5790E-13  9.0
      -24    2    1    2    0    0  1.82945124689E+02 -2.93407359890E+01  1.47192766747E+02  2.49903786465E+02  8.03516923987E+01  5.4845E-15  9.0
       -1    1    3    3    0  500 -1.26445711130E+02  1.54627566390E+01 -1.43202016339E+02  1.91662286821E+02  0.00000000000E+00  0.0000E+00  9.0
        2    1    3    3  500    0 -5.64994135588E+01  1.38779793500E+01 -4.10122309822E+00  5.83232550037E+01  0.00000000000E+00  0.0000E+00  9.0
        3    1    4    4  504    0  1.77904351903E+02 -1.40173833493E+01  1.50477906852E+02  2.33431030312E+02  0.00000000000E+00  0.0000E+00  9.0
       -4    1    4    4    0  504  5.04077278544E+00 -1.53233526397E+01 -3.28514010443E+00  1.64727561534E+01  5.87386917370E-01  0.0000E+00  9.0
</event>
<event>
 8    1   5.1859766E+00   4.8410000E+02  -1.0000000E+00   9.3850000E-02
       11   -1    0    0    0    0  0.00000000000E+00  0.00000000000E+00  2.50000000000E+02  2.50000000000E+02  0.00000000000E+00  0.0000E+00  9.0
      -11   -1    0    0    0    0  0.00000000000E+00  0.00000000000E+00 -2.34368979920E+02  2.34368979920E+02  0.00000000000E+00  0.0000E+00  9.0
       24    2    1    2    0    0  8.07479585630E+01 -4.62488235411E+01 -2.00331930388E+02  2.35364882574E+02  8.12684386755E+01  2.9392E-13  9.0
      -24    2    1    2    0    0 -8.07479585630E+01  4.62488235411E+01  2.15962950478E+02  2.49004097343E+02  8.18770909557E+01  2.6173E-13  9.0
       -3    1    3    3    0  500 -2.90908520822E+00 -1.06590944894E+01 -9.74279196099E+01  9.80524277700E+01  0.00000000000E+00  0.0000E+00  9.0
        4    1    3    3  500    0  8.36570437712E+01 -3.55897290516E+01 -1.02904010778E+02  1.37312454804E+02  5.87386917370E-01  0.0000E+00  9.0
        1    1    4    4  504    0 -4.72363599121E+01  5.82714841825E+01  1.91878783219E+02  2.06020161674E+02  0.00000000000E+00  0.0000E+00  9.0
       -2    1    4    4    0  504 -3.35115986509E+01 -1.20226606414E+01  2.40841672594E+01  4.29839356692E+01  0.00000000000E+00  0.0000E+00  9.0
</event>
<event>
 8    1   5.1859766E+00   5.0000000E+02  -1.0000000E+00   9.3490000E-02
       11   -1    0    0    0    0  0.00000000000E+00  0.00000000000E+00  2.49997602780E+02  2.49997602780E+02  0.00000000000E+00  0.0000E+00  9.0
      -11   -1    0    0    0    0  0.00000000000E+00  0.00000000000E+00 -2.49979932620E+02  2.49979932620E+02  0.00000000000E+00  0.0000E+00  9.0
       24    2    1    2    0    0 -3.63893407850E+01 -5.16303354609E+01 -2.27714819327E+02  2.49569996996E+02  8.02575155154E+01  9.8810E-14  9.0
      -24    2    1    2    0    0  3.63893407850E+01  5.16303354609E+01  2.27732489487E+02  2.50407538401E+02  8.27766443938E+01  1.6862E-13  9.0
      -13    1    3    3    0    0  2.29706408421E+01 -3.16086686187E+01 -9.86000229039E+01  1.06060048848E+02  1.05700000000E-01  0.0000E+00  9.0
       14    1    3    3    0    0 -5.93599816271E+01 -2.00216668422E+01 -1.29114796424E+02  1.43509948148E+02  0.00000000000E+00  0.0000E+00  9.0
        1    1    4    4  500    0  3.46940297983E+01 -1.23421530621E+01  1.15307842863E+02  1.21045045630E+02  0.00000000000E+00  0.0000E+00  9.0
       -2    1    4    4    0  500  1.69531098669E+00  6.39724885230E+01  1.12424646625E+02  1.29362492771E+02  0.00000000000E+00  0.0000E+00  9.0
</event>
<event>
 8    1   5.1859766E+00   2.9430000E+02  -1.0000000E+00   9.9750000E-02
       11   -1    0    0    0    0  0.00000000000E+00  0.00000000000E+00  2.49819795290E+02  2.49819795290E+02  0.00000000000E+00  0.0000E+00  9.0
      -11   -1    0    0    0    0  0.00000000000E+00  0.00000000000E+00 -8.66584686880E+01  8.66584686880E+01  0.00000000000E+00  0.0000E+00  9.0
       24    2    1    2    0    0  9.55979187906E+01  1.80942658259E+01  3.01825741678E+00  1.33123567537E+02  9.08097451991E+01  9.7019E-14  9.0
      -24    2    1    2    0    0 -9.55979187906E+01 -1.80942658259E+01  1.60143069191E+02  2.03354696445E+02  7.89997811612E+01  1.1343E-13  9.0
       -3    1    3    3    0  500  6.58754620071E+01 -2.52161275978E+01  2.68041827183E+01  7.54578941985E+01  0.00000000000E+00  0.0000E+00  9.0
        4    1    3    3  500    0  2.97224567836E+01  4.33103934237E+01 -2.37859253015E+01  5.76656733387E+01  5.87386917370E-01  0.0000E+00  9.0
        1    1    4    4  504    0 -1.72424098908E+01 -3.87886795461E+01  7.22836913217E+01  8.38259768262E+01  0.00000000000E+00  0.0000E+00  9.0
       -2    1    4    4    0  504 -7.83555088998E+01  2.06944137202E+01  8.78593778690E+01  1.19528719619E+02  0.00000000000E+00  0.0000E+00  9.0
</event>
<event>
 8    1   5.1859766E+00   4.9510000E+02  -1.0000000E+00   9.3600000E-02
       11   -1    0    0    0    0  0.00000000000E+00  0.00000000000E+00  2.45111388930E+02  2.45111388930E+02  0.00000000000E+00  0.0000E+00  9.0
      -11   -1    0    0    0    0  0.00000000000E+00  0.00000000000E+00 -2.49999982810E+02  2.49999982810E+02  0.00000000000E+00  0.0000E+00  9.0
       24    2    1    2    0    0 -4.96757635199E+01  2.33589303631E+01 -2.30065198360E+02  2.49612177250E+02  7.97679285535E+01  9.6028E-14  9.0
      -24    2    1    2    0    0  4.96757635199E+01 -2.33589303631E+01  2.25176604480E+02  2.45499194493E+02  8.09446118182E+01  4.4953E-14  9.0
       -3    1    3    3    0  500  8.70798901880E+00  2.91850412582E+01 -1.30822453995E+02  1.34320922329E+02  0.00000000000E+00  0.0000E+00  9.0
        4    1    3    3  500    0 -5.83837525387E+01 -5.82611089515E+00 -9.92427443657E+01  1.15291254921E+02  5.87386917370E-01  0.0000E+00  9.0
        1    1    4    4  504    0  5.02819222843E+01  2.02294608338E+01  1.26649193506E+02  1.37758923522E+02  0.00000000000E+00  0.0000E+00  9.0
       -2    1    4    4    0  504 -6.06158764459E-01 -4.35883911969E+01  9.85274109741E+01  1.07740270971E+02  0.00000000000E+00  0.0000E+00  9.0
</event>
<event>
 8    1   5.1859766E+00   2.1100000E+02  -1.0000000E+00   1.0410000E-01
       11   -1    0    0    0    0  0.00000000000E+00  0.00000000000E+00  4.67184491230E+01  4.67184491230E+01  0.00000000000E+00  0.0000E+00  9.0
      -11   -1    0    0    0    0  0.00000000000E+00  0.00000000000E+00 -2.38196132490E+02  2.38196132490E+02  0.00000000000E+00  0.0000E+00  9.0
       24    2    1    2    0    0  2.29881143786E+01  1.13420301715E+01 -1.88849739419E+02  2.05126949304E+02  7.58666343067E+01  2.2417E-13  9.0
      -24    2    1    2    0    0 -2.29881143786E+01 -1.13420301715E+01 -2.62794394345E+00  7.97876323058E+01  7.55120197618E+01  4.8736E-13  9.0
       -1    1    3    3    0  500 -1.78921453319E+01 -1.86123763016E-01 -1.36711568746E+02  1.37877541811E+02  0.00000000000E+00  0.0000E+00  9.0
        2    1    3    3  500    0  4.08802597104E+01  1.15281539345E+01 -5.21381706730E+01  6.72494074937E+01  0.00000000000E+00  0.0000E+00  9.0
        3    1    4    4  504    0 -8.08036355059E-01 -2.96098750341E+01  2.58597665172E+01  3.93207978888E+01  0.00000000000E+00  0.0000E+00  9.0
       -4    1    4    4    0  504 -2.21800780235E+01  1.82678448626E+01 -2.84877104607E+01  4.04668344170E+01  5.87386917370E-01  0.0000E+00  9.0
</event>
<event>
 8    1   5.1859766E+00   4.4560000E+02  -1.0000000E+00   9.4780000E-02
       11   -1    0    0    0    0  0.00000000000E+00  0.00000000000E+00  2.29666277720E+02  2.29666277720E+02  0.00000000000E+00  0.0000E+00  9.0
      -11   -1    0    0    0    0  0.00000000000E+00  0.00000000000E+00 -2.16133123180E+02  2.16133123180E+02  0.00000000000E+00  0.0000E+00  9.0
       24    2    1    2    0    0  5.01825246104E+01 -9.63824999814E+01 -1.66326961372E+02  2.14393018883E+02  8.05719330026E+01  4.4137E-14  9.0
      -24    2    1    2    0    0 -5.01825246104E+01  9.63824999814E+01  1.79860115912E+02  2.31406382011E+02  9.69091340423E+01  1.5095E-14  9.0
       -3    1    3    3    0  500  1.30490673784E+01 -2.90605417353E+01 -1.21037778018E+02  1.25159645864E+02  0.00000000000E+00  0.0000E+00  9.0
        4    1    3    3  500    0  3.71334572320E+01 -6.73219582461E+01 -4.52891833541E+01  8.92333730191E+01  5.87386917370E-01  0.0000E+00  9.0
        3    1    4    4  504    0 -5.29628685969E+00 -3.98884740716E+00 -1.00046588046E+01  1.20022812805E+01  0.00000000000E+00  0.0000E+00  9.0
       -4    1    4    4    0  504 -4.48862377507E+01  1.00371347389E+02  1.89864774716E+02  2.19404100731E+02  5.87386917370E-01  0.0000E+00  9.0
</event>
<event>
 8    1   5.1859766E+00   4.9910000E+02  -1.0000000E+00   9.3510000E-02
       11   -1    0    0    0    0  0.00000000000E+00  0.00000000000E+00  2.49101601200E+02  2.49101601200E+02  0.00000000000E+00  0.0000E+00  9.0
      -11   -1    0    0    0    0  0.00000000000E+00  0.00000000000E+00 -2.49998148920E+02  2.49998148920E+02  0.00000000000E+00  0.0000E+00  9.0
       24    2    1    2    0    0  1.33095889736E+01  1.54992194444E+00 -2.29569009874E+02  2.43031601652E+02  7.86313022268E+01  6.1789E-14  9.0
      -24    2    1    2    0    0 -1.33095889736E+01 -1.54992194444E+00  2.28672462154E+02  2.56068148461E+02  1.14456342296E+02  1.1455E-13  9.0
      -13    1    3    3    0    0  1.80989292449E+01 -3.04903774494E+01 -1.82364967967E+02  1.85780050250E+02  1.05700000000E-01  0.0000E+00  9.0
       14    1    3    3    0    0 -4.78934027130E+00  3.20402993938E+01 -4.72040419077E+01  5.72515514017E+01  0.00000000000E+00  0.0000E+00  9.0
       13    1    4    4    0    0 -3.56105988653E+01  3.11445712904E+01  3.62018954100E+01  5.95708609655E+01  1.05700000000E-01  0.0000E+00  9.0
      -14    1    4    4    0    0  2.23010098917E+01 -3.26944932348E+01  1.92470566745E+02  1.96497287495E+02  0.00000000000E+00  0.0000E+00  9.0
</event>
<event>
 8    1   5.1859766E+00   4.8830000E+02  -1.0000000E+00   9.3750000E-02
       11   -1    0    0    0    0  0.00000000000E+00  0.00000000000E+00  2.50000000000E+02  2.50000000000E+02  0.00000000000E+00  0.0000E+00  9.0
      -11   -1    0    0    0    0  0.00000000000E+00  0.00000000000E+00 -2.38483025290E+02  2.38483025290E+02  0.00000000000E+00  0.0000E+00  9.0
       24    2    1    2    0    0  3.10436357397E+00 -4.92962888281E+01 -2.19297219053E+02  2.38917489330E+02  8.09353770477E+01  3.4970E-14  9.0
      -24    2    1    2    0    0 -3.10436357397E+00  4.92962888281E+01  2.30814193763E+02  2.49565535968E+02  8.10432201662E+01  6.4554E-14  9.0
       -1    1    3    3    0  500 -1.15376344875E+01 -2.08605405192E+01 -7.89871359677E+00  2.51131208098E+01  0.00000000000E+00  0.0000E+00  9.0
        2    1    3    3  500    0  1.46419980615E+01 -2.84357483089E+01 -2.11398505456E+02  2.13804368520E+02  0.00000000000E+00  0.0000E+00  9.0
        3    1    4    4  504    0  6.04314381044E+00  3.50762086190E+01  2.60593576604E+01  4.41129246352E+01  0.00000000000E+00  0.0000E+00  9.0
       -4    1    4    4    0  504 -9.14750738442E+00  1.42200802091E+01  2.04754836103E+02  2.05452611333E+02  5.87386917370E-01  0.0000E+00  9.0
</event>
<event>
 8    1   5.1859766E+00   4.5020000E+02  -1.0000000E+00   9.4670000E-02
       11   -1    0    0    0    0  0.00000000000E+00  0.00000000000E+00  2.25666765930E+02  2.25666765930E+02  0.00000000000E+00  0.0000E+00  9.0
      -11   -1    0    0    0    0  0.00000000000E+00  0.00000000000E+00 -2.24535843970E+02  2.24535843970E+02  0.00000000000E+00  0.0000E+00  9.0
       24    2    1    2    0    0 -1.05131409208E+01  1.76971472461E+01 -2.08733179555E+02  2.24208379560E+02  7.92221059112E+01  4.9234E-14  9.0
      -24    2    1    2    0    0  1.05131409208E+01 -1.76971472461E+01  2.09864101515E+02  2.25994230348E+02  8.12818300310E+01  1.7022E-14  9.0
      -13    1    3    3    0    0 -1.91247228588E+01 -2.87085797025E+01 -8.13018448099E+01  8.83172617043E+01  1.05700000000E-01  0.0000E+00  9.0
       14    1    3    3    0    0  8.61158193802E+00  4.64057269485E+01 -1.27431334745E+02  1.35891117855E+02  0.00000000000E+00  0.0000E+00  9.0
        1    1    4    4  500    0 -4.80255409499E+00 -4.84759665511E+01  1.07796072841E+02  1.18291915103E+02  0.00000000000E+00  0.0000E+00  9.0
       -2    1    4    4    0  500  1.53156950158E+01  3.07788193050E+01  1.02068028674E+02  1.07702315244E+02  0.00000000000E+00  0.0000E+00  9.0
</event>
<event>
 8    1   5.1859766E+00   3.9160000E+02  -1.0000000E+00   9.6280000E-02
       11   -1    0    0    0    0  0.00000000000E+00  0.00000000000E+00  2.48571512690E+02  2.48571512690E+02  0.00000000000E+00  0.0000E+00  9.0
      -11   -1    0    0    0    0  0.00000000000E+00  0.00000000000E+00 -1.54241405160E+02  1.54241405160E+02  0.00000000000E+00  0.0000E+00  9.0
       24    2    1    2    0    0  1.49032476462E+01 -2.51586058810E+01 -1.33800390905E+02  1.59643469269E+02  8.20270103907E+01  1.1582E-13  9.0
      -24    2    1    2    0    0 -1.49032476462E+01  2.51586058810E+01  2.28130498435E+02  2.43169448577E+02  7.89480472525E+01  1.3608E-14  9.0
       -3    1    3    3    0  500 -5.47580661311E+00  2.82728261138E+01 -5.72993498770E+01  6.41291871993E+01  0.00000000000E+00  0.0000E+00  9.0
        4    1    3    3  500    0  2.03790542593E+01 -5.34314319948E+01 -7.65010410279E+01  9.55142820695E+01  5.87386917370E-01  0.0000E+00  9.0
       13    1    4    4    0    0 -1.01562909509E+00  5.29255323289E+01  1.51892572770E+02  1.60852442660E+02  1.05700000000E-01  0.0000E+00  9.0
      -14    1    4    4    0    0 -1.38876185511E+01 -2.77669264479E+01  7.62379256652E+01  8.23170059168E+01  0.00000000000E+00  0.0000E+00  9.0
</event>
<event>
 8    1   5.1859766E+00   3.9840000E+02  -1.0000000E+00   9.6070000E-02
       11   -1    0    0    0    0  0.00000000000E+00  0.00000000000E+00  1.62606006890E+02  1.62606006890E+02  0.00000000000E+00  0.0000E+00  9.0
      -11   -1    0    0    0    0  0.00000000000E+00  0.00000000000E+00 -2.44026188530E+02  2.44026188530E+02  0.00000000000E+00  0.0000E+00  9.0
       24    2    1    2    0    0 -3.66445604214E+00 -1.38894888867E+02 -1.62158770037E+02  2.27940305645E+02  7.97251393611E+01  7.8128E-14  9.0
      -24    2    1    2    0    0  3.66445604214E+00  1.38894888867E+02  8.07385883981E+01  1.78691889773E+02  7.81463589870E+01  1.5317E-13  9.0
       -1    1    3    3    0  500  8.72035902900E+00 -2.26108181237E+01  4.19637199913E+00  2.45947818810E+01  0.00000000000E+00  0.0000E+00  9.0
        2    1    3    3  500    0 -1.23848150711E+01 -1.16284070743E+02 -1.66355142036E+02  2.03345523764E+02  0.00000000000E+00  0.0000E+00  9.0
        1    1    4    4  504    0  3.93637756021E+01  5.15154695389E+01  2.86338068340E+01  7.08748567919E+01  0.00000000000E+00  0.0000E+00  9.0
       -2    1    4    4    0  504 -3.56993195600E+01  8.73794193276E+01  5.21047815641E+01  1.07817032981E+02  0.00000000000E+00  0.0000E+00  9.0
</event>
<event>
 8    1   5.1859766E+00   5.0000000E+02  -1.0000000E+00   9.3490000E-02
       11   -1    0    0    0    0  0.00000000000E+00  0.00000000000E+00  2.50000000000E+02  2.50000000000E+02  0.00000000000E+00  0.0000E+00  9.0
      -11   -1    0    0    0    0  0.00000000000E+00  0.00000000000E+00 -2.50000000000E+02  2.50000000000E+02  0.00000000000E+00  0.0000E+00  9.0
       24    2    1    2    0    0 -3.37211636368E+01  5.65815009516E+01 -2.27238798076E+02  2.50002293851E+02  8.07780443743E+01  3.5926E-14  9.0
      -24    2    1    2    0    0  3.37211636368E+01 -5.65815009516E+01  2.27238798076E+02  2.49997706140E+02  8.07638446192E+01  9.0355E-15  9.0
       -1    1    3    3    0  500  2.13682703884E+01  1.15637097579E+01 -1.11735759888E+02  1.14346851292E+02  0.00000000000E+00  0.0000E+00  9.0
        2    1    3    3  500    0 -5.50894340252E+01  4.50177911937E+01 -1.15503038188E+02  1.35655442559E+02  0.00000000000E+00  0.0000E+00  9.0
        1    1    4    4  504    0 -1.37388033784E+01 -5.49548222023E+01  1.28592889380E+02  1.40516612544E+02  0.00000000000E+00  0.0000E+00  9.0
       -2    1    4    4    0  504  4.74599670151E+01 -1.62667874931E+00  9.86459086952E+01  1.09481093597E+02  0.00000000000E+00  0.0000E+00  9.0
</event>
<event>
 8    1   5.1859766E+00   4.8760000E+02  -1.0000000E+00   9.3770000E-02
       11   -1    0    0    0    0  0.00000000000E+00  0.00000000000E+00  2.37706917540E+02  2.37706917540E+02  0.00000000000E+00  0.0000E+00  9.0
      -11   -1    0    0    0    0  0.00000000000E+00  0.00000000000E+00 -2.49999690180E+02  2.49999690180E+02  0.00000000000E+00  0.0000E+00  9.0
       24    2    1    2    0    0 -2.92438366013E+01  1.46108640067E+01 -2.34980431254E+02  2.50901099572E+02  8.16509606057E+01  1.0063E-13  9.0
      -24    2    1    2    0    0  2.92438366013E+01 -1.46108640067E+01  2.22687658604E+02  2.36805508144E+02  7.36096193893E+01  5.8699E-14  9.0
       -1    1    3    3    0  500 -2.42057990567E+01 -2.58945218102E+01 -4.88959080028E+01  6.03925226098E+01  0.00000000000E+00  0.0000E+00  9.0
        2    1    3    3  500    0 -5.03803754456E+00  4.05053858168E+01 -1.86084523252E+02  1.90508576962E+02  0.00000000000E+00  0.0000E+00  9.0
        1    1    4    4  504    0  4.43536472463E+01 -5.78137917670E+00  2.11169749310E+02  2.15854889667E+02  0.00000000000E+00  0.0000E+00  9.0
       -2    1    4    4    0  504 -1.51098106450E+01 -8.82948482999E+00  1.15179092940E+01  2.09506184776E+01  0.00000000000E+00  0.0000E+00  9.0
</event>
<event>
 8    1   5.1859766E+00   4.3710000E+02  -1.0000000E+00   9.5000000E-02
       11   -1    0    0    0    0  0.00000000000E+00  0.00000000000E+00  1.91047463070E+02  1.91047463070E+02  0.00000000000E+00  0.0000E+00  9.0
      -11   -1    0    0    0    0  0.00000000000E+00  0.00000000000E+00 -2.49996892920E+02  2.49996892920E+02  0.00000000000E+00  0.0000E+00  9.0
       24    2    1    2    0    0 -2.48531062775E+01  5.23527278295E+00 -2.32206705341E+02  2.47897206577E+02  8.29938916444E+01  1.1208E-13  9.0
      -24    2    1    2    0    0  2.48531062775E+01 -5.23527278295E+00  1.73257275491E+02  1.93147149405E+02  8.15024713714E+01  4.2860E-14  9.0
       -3    1    3    3    0  500  6.20544439570E+00 -1.14783893417E+01 -2.22441904790E-02  1.30484273700E+01  0.00000000000E+00  0.0000E+00  9.0
        4    1    3    3  500    0 -3.10585506732E+01  1.67136621246E+01 -2.32184461151E+02  2.34848779207E+02  5.87386917370E-01  0.0000E+00  9.0
        1    1    4    4  504    0  2.69081288890E+01 -3.84492456915E+00  8.65493009080E+00  2.85261048888E+01  0.00000000000E+00  0.0000E+00  9.0
       -2    1    4    4    0  504 -2.05502261146E+00 -1.39034821380E+00  1.64602345401E+02  1.64621044516E+02  0.00000000000E+00  0.0000E+00  9.0
</event>
<event>
 8    1   5.1859766E+00   4.8490000E+02  -1.0000000E+00   9.3830000E-02
       11   -1    0    0    0    0  0.00000000000E+00  0.00000000000E+00  2.49973878330E+02  2.49973878330E+02  0.00000000000E+00  0.0000E+00  9.0
      -11   -1    0    0    0    0  0.00000000000E+00  0.00000000000E+00 -2.35177512640E+02  2.35177512640E+02  0.00000000000E+00  0.0000E+00  9.0
       24    2    1    2    0    0 -1.12691719178E+01  4.78210371336E+00 -2.22716729861E+02  2.36524601487E+02  7.86847037042E+01  1.3165E-13  9.0
      -24    2    1    2    0    0  1.12691719178E+01 -4.78210371336E+00  2.37513095541E+02  2.48626789488E+02  7.24772181196E+01  3.8078E-14  9.0
       -3    1    3    3    0  500  1.94263001290E+01 -3.47216102681E+00 -1.13192680116E+01  2.27500080707E+01  0.00000000000E+00  0.0000E+00  9.0
        4    1    3    3  500    0 -3.06954720469E+01  8.25426474017E+00 -2.11397461849E+02  2.13774593416E+02  5.87386917370E-01  0.0000E+00  9.0
        1    1    4    4  504    0 -5.53032942775E+00 -2.01335174010E+01  1.69512051465E+01  2.68939848746E+01  0.00000000000E+00  0.0000E+00  9.0
       -2    1    4    4    0  504  1.67995013456E+01  1.53514136876E+01  2.20561890394E+02  2.21732804614E+02  0.00000000000E+00  0.0000E+00  9.0
</event>
<event>
 8    1   5.1859766E+00   4.9710000E+02  -1.0000000E+00   9.3560000E-02
       11   -1    0    0    0    0  0.00000000000E+00  0.00000000000E+00  2.50000000000E+02  2.50000000000E+02  0.00000000000E+00  0.0000E+00  9.0
      -11   -1    0    0    0    0  0.00000000000E+00  0.00000000000E+00 -2.47079292830E+02  2.47079292830E+02  0.00000000000E+00  0.0000E+00  9.0
       24    2    1    2    0    0 -9.09419498129E+01 -1.85796565585E+02 -1.09455776331E+02  2.48327358890E+02  8.30367881240E+01  3.7924E-13  9.0
      -24    2    1    2    0    0  9.09419498129E+01  1.85796565585E+02  1.12376483501E+02  2.48751933951E+02  8.03632290379E+01  1.4894E-14  9.0
       -3    1    3    3    0  500 -8.85524649797E+01 -9.65061573759E+01 -8.34183717863E+01  1.55285550574E+02  0.00000000000E+00  0.0000E+00  9.0
        4    1    3    3  500    0 -2.38948483318E+00 -8.92904082093E+01 -2.60374045445E+01  9.30418083163E+01  5.87386917370E-01  0.0000E+00  9.0
        1    1    4    4  504    0  4.48101209656E+01  3.24934766141E+01  4.14594822951E+00  5.55064126939E+01  0.00000000000E+00  0.0000E+00  9.0
       -2    1    4    4    0  504  4.61318288473E+01  1.53303088971E+02  1.08230535271E+02  1.93245521257E+02  0.00000000000E+00  0.0000E+00  9.0
</event>
<event>
 8    1   5.1859766E+00   4.3140000E+02  -1.0000000E+00   9.5150000E-02
       11   -1    0    0    0    0  0.00000000000E+00  0.00000000000E+00  2.50000000000E+02  2.50000000000E+02  0.00000000000E+00  0.0000E+00  9.0
      -11   -1    0    0    0    0  0.00000000000E+00  0.00000000000E+00 -1.86112279330E+02  1.86112279330E+02  0.00000000000E+00  0.0000E+00  9.0
       24    2    1    2    0    0  7.63646116716E+01  1.10745252819E+02 -1.27761484424E+02  1.88185422499E+02  3.15387285951E+01  1.0224E-13  9.0
      -24    2    1    2    0    0 -7.63646116716E+01 -1.10745252819E+02  1.91649205094E+02  2.47926856833E+02  8.14999606654E+01  1.0330E-13  9.0
      -13    1    3    3    0    0  2.09558852588E+01  5.46395470110E+01 -6.45014560820E+01  8.70923546228E+01  1.05700000000E-01  0.0000E+00  9.0
       14    1    3    3    0    0  5.54087264128E+01  5.61057058082E+01 -6.32600283417E+01  1.01093067877E+02  0.00000000000E+00  0.0000E+00  9.0
        1    1    4    4  500    0 -2.85317122304E+01 -9.07499236709E+01  7.80275948272E+01  1.23036225574E+02  0.00000000000E+00  0.0000E+00  9.0
       -2    1    4    4    0  500 -4.78328994412E+01 -1.99953291482E+01  1.13621610267E+02  1.24890631259E+02  0.00000000000E+00  0.0000E+00  9.0
</event>
<event>
 8    1   5.1859766E+00   4.3500000E+02  -1.0000000E+00   9.5060000E-02
       11   -1    0    0    0    0  0.00000000000E+00  0.00000000000E+00  2.26734310390E+02  2.26734310390E+02  0.00000000000E+00  0.0000E+00  9.0
      -11   -1    0    0    0    0  0.00000000000E+00  0.00000000000E+00 -2.08667794950E+02  2.08667794950E+02  0.00000000000E+00  0.0000E+00  9.0
       24    2    1    2    0    0 -1.88201956751E+02 -3.94239328134E+01  6.91852084683E+01  2.19618677135E+02  8.04459276310E+01  5.6362E-13  9.0
      -24    2    1    2    0    0  1.88201956751E+02  3.94239328134E+01 -5.11186930303E+01  2.15783428204E+02  8.35173281834E+01  7.3955E-14  9.0
       -1    1    3    3    0  500 -8.31630008734E+01  7.42942277803E+00 -3.48952149020E+00  8.35670856098E+01  0.00000000000E+00  0.0000E+00  9.0
        2    1    3    3  500    0 -1.05038955877E+02 -4.68533555914E+01  7.26747299585E+01  1.36051591525E+02  0.00000000000E+00  0.0000E+00  9.0
        3    1    4    4  504    0  1.09000686236E+02 -1.85349872028E+01 -3.72047535994E+01  1.16657143120E+02  0.00000000000E+00  0.0000E+00  9.0
       -4    1    4    4    0  504  7.92012705143E+01  5.79589200162E+01 -1.39139394309E+01  9.91262850832E+01  5.87386917370E-01  0.0000E+00  9.0
</event>
<event>
 8    1   5.1859766E+00   4.8250000E+02  -1.0000000E+00   9.3890000E-02
       11   -1    0    0    0    0  0.00000000000E+00  0.00000000000E+00  2.43814512880E+02  2.43814512880E+02  0.00000000000E+00  0.0000E+00  9.0
      -11   -1    0    0    0    0  0.00000000000E+00  0.00000000000E+00 -2.38753652460E+02  2.38753652460E+02  0.00000000000E+00  0.0000E+00  9.0
       24    2    1    2    0    0 -3.90041979349E+01  1.33649509248E+01 -2.21541567829E+02  2.39299574497E+02  8.05212438343E+01  6.5390E-15  9.0
      -24    2    1    2    0    0  3.90041979349E+01 -1.33649509248E+01  2.26602428239E+02  2.43268590844E+02  7.83006860615E+01  3.8231E-14  9.0
       -1    1    3    3    0  500 -6.31041983504E+01  1.85337394305E+01 -1.64485796946E+02  1.77147443515E+02  0.00000000000E+00  0.0000E+00  9.0
        2    1    3    3  500    0  2.41000004155E+01 -5.16878850579E+00 -5.70557708827E+01  6.21521309825E+01  0.00000000000E+00  0.0000E+00  9.0
        1    1    4    4  504    0 -1.61847282526E+01 -1.41423754588E+00  1.32733120739E+02  1.33723695872E+02  0.00000000000E+00  0.0000E+00  9.0
       -2    1    4    4    0  504  5.51889261876E+01 -1.19507133789E+01  9.38693074997E+01  1.09544894972E+02  0.00000000000E+00  0.0000E+00  9.0
</event>
<event>
 8    1   5.1859766E+00   5.0000000E+02  -1.0000000E+00   9.3490000E-02
       11   -1    0    0    0    0  0.00000000000E+00  0.00000000000E+00  2.49999999680E+02  2.49999999680E+02  0.00000000000E+00  0.0000E+00  9.0
      -11   -1    0    0    0    0  0.00000000000E+00  0.00000000000E+00 -2.50000000000E+02  2.50000000000E+02  0.00000000000E+00  0.0000E+00  9.0
       24    2    1    2    0    0 -1.98763937462E+01 -2.58714032238E+01 -2.34575245168E+02  2.49719348986E+02  7.91821133792E+01  2.1062E-13  9.0
      -24    2    1    2    0    0  1.98763937462E+01  2.58714032238E+01  2.34575244848E+02  2.50280650686E+02  8.09349002527E+01  2.9278E-13  9.0
       -3    1    3    3    0  500 -4.60173945252E+01 -2.72711692345E+01 -1.08691518980E+02  1.21141089513E+02  0.00000000000E+00  0.0000E+00  9.0
        4    1    3    3  500    0  2.61410007790E+01  1.39976601066E+00 -1.25883726189E+02  1.28578259473E+02  5.87386917370E-01  0.0000E+00  9.0
        3    1    4    4  504    0 -1.07605570696E+01  1.90423166210E+01  1.09458517001E+01  2.44583539958E+01  0.00000000000E+00  0.0000E+00  9.0
       -4    1    4    4    0  504  3.06369508158E+01  6.82908660285E+00  2.23629393148E+02  2.25822296690E+02  5.87386917370E-01  0.0000E+00  9.0
</event>
<event>
 8    1   5.1859766E+00   4.0570000E+02  -1.0000000E+00   9.5860000E-02
       11   -1    0    0    0    0  0.00000000000E+00  0.00000000000E+00  2.49932683210E+02  2.49932683210E+02  0.00000000000E+00  0.0000E+00  9.0
      -11   -1    0    0    0    0  0.00000000000E+00  0.00000000000E+00 -1.64676959790E+02  1.64676959790E+02  0.00000000000E+00  0.0000E+00  9.0
       24    2    1    2    0    0 -1.38202947825E+02 -1.59589403962E+01 -8.48782056104E+01  1.81813227141E+02  8.06039528169E+01  1.8600E-13  9.0
      -24    2    1    2    0    0  1.38202947825E+02  1.59589403962E+01  1.70133929029E+02  2.32796415845E+02  7.67715758422E+01  6.4689E-14  9.0
       -1    1    3    3    0  500 -8.82558703030E+01 -4.55399017545E+01 -3.50661253382E+01  1.05321481384E+02  0.00000000000E+00  0.0000E+00  9.0
        2    1    3    3  500    0 -4.99470775219E+01  2.95809613583E+01 -4.98120802722E+01  7.64917457566E+01  0.00000000000E+00  0.0000E+00  9.0
        1    1    4    4  504    0  3.93090068350E+01 -2.89235622547E+01  6.80999848175E+01  8.37817307293E+01  0.00000000000E+00  0.0000E+00  9.0
       -2    1    4    4    0  504  9.88939409899E+01  4.48825026509E+01  1.02033944212E+02  1.49014685116E+02  0.00000000000E+00  0.0000E+00  9.0
</event>
<event>
 8    1   5.1859766E+00   4.9960000E+02  -1.0000000E+00   9.3500000E-02
       11   -1    0    0    0    0  0.00000000000E+00  0.00000000000E+00  2.49945380860E+02  2.49945380860E+02  0.00000000000E+00  0.0000E+00  9.0
      -11   -1    0    0    0    0  0.00000000000E+00  0.00000000000E+00 -2.49700680850E+02  2.49700680850E+02  0.00000000000E+00  0.0000E+00  9.0
       24    2    1    2    0    0 -3.56513064367E+01  3.55298177726E+00 -2.33881318799E+02  2.50079871027E+02  8.09680880310E+01  3.1745E-14  9.0
      -24    2    1    2    0    0  3.56513064367E+01 -3.55298177726E+00  2.34126018809E+02  2.49566190684E+02  7.86425553934E+01  1.2669E-14  9.0
      -13    1    3    3    0    0 -6.08949370120E+00 -3.39710781817E+01 -1.46323193022E+02  1.50338298763E+02  1.05700000000E-01  0.0000E+00  9.0
       14    1    3    3    0    0 -2.95618127355E+01  3.75240599590E+01 -8.75581257774E+01  9.97415722639E+01  0.00000000000E+00  0.0000E+00  9.0
        3    1    4    4  500    0  3.20584445478E+01  1.60297240468E+01  3.72818502653E+01  5.17168471491E+01  0.00000000000E+00  0.0000E+00  9.0
       -4    1    4    4    0  500  3.59286188888E+00 -1.95827058241E+01  1.96844168544E+02  1.97849343535E+02  5.87386917370E-01  0.0000E+00  9.0
</event>
<event>
 8    1   5.1859766E+00   4.4060000E+02  -1.0000000E+00   9.4910000E-02
       11   -1    0    0    0    0  0.00000000000E+00  0.00000000000E+00  2.49097999950E+02  2.49097999950E+02  0.00000000000E+00  0.0000E+00  9.0
      -11   -1    0    0    0    0  0.00000000000E+00  0.00000000000E+00 -1.94847566730E+02  1.94847566730E+02  0.00000000000E+00  0.0000E+00  9.0
       24    2    1    2    0    0 -1.45360789730E+02 -1.37956790650E+01 -1.16448538423E+02  2.05278836853E+02  8.52001103716E+01  1.2637E-13  9.0
      -24    2    1    2    0    0  1.45360789730E+02  1.37956790650E+01  1.70698971643E+02  2.38666729824E+02  8.06448327757E+01  1.7970E-14  9.0
       -3    1    3    3    0  500 -1.13989515403E+02  2.23532149811E+00 -3.95227440311E+01  1.20667533246E+02  0.00000000000E+00  0.0000E+00  9.0
        4    1    3    3  500    0 -3.13712743270E+01 -1.60310005631E+01 -7.69257943915E+01  8.46113036072E+01  5.87386917370E-01  0.0000E+00  9.0
        1    1    4    4  504    0 -3.65360234045E+00  1.54964406956E+01  7.29550269849E+00  1.75132191192E+01  0.00000000000E+00  0.0000E+00  9.0
       -2    1    4    4    0  504  1.49014392070E+02 -1.70076163063E+00  1.63403468944E+02  2.21153510705E+02  0.00000000000E+00  0.0000E+00  9.0
</event>
<event>
 8    1   5.1859766E+00   4.4300000E+02  -1.0000000E+00   9.4850000E-02
       11   -1    0    0    0    0  0.00000000000E+00  0.00000000000E+00  2.15920929820E+02  2.15920929820E+02  0.00000000000E+00  0.0000E+00  9.0
      -11   -1    0    0    0    0  0.00000000000E+00  0.00000000000E+00 -2.27247030630E+02  2.27247030630E+02  0.00000000000E+00  0.0000E+00  9.0
       24    2    1    2    0    0 -6.28194002175E+01  5.17110128912E+01 -1.94954991821E+02  2.26564043709E+02  8.18749727808E+01  9.3344E-14  9.0
      -24    2    1    2    0    0  6.28194002175E+01 -5.17110128912E+01  1.83628891011E+02  2.16603916740E+02  8.11010556978E+01  3.8397E-14  9.0
      -13    1    3    3    0    0 -7.82090254132E+01  5.78057922727E+01 -1.78204520742E+02  2.03014836063E+02  1.05700000000E-01  0.0000E+00  9.0
       14    1    3    3    0    0  1.53896251957E+01 -6.09477938153E+00 -1.67504710789E+01  2.35492076457E+01  0.00000000000E+00  0.0000E+00  9.0
        3    1    4    4  500    0  4.62039353661E+00  6.00800188880E+00  9.71693010418E+01  9.74644406339E+01  0.00000000000E+00  0.0000E+00  9.0
       -4    1    4    4    0  500  5.81990066809E+01 -5.77190147800E+01  8.64595899690E+01  1.19139476106E+02  5.87386917370E-01  0.0000E+00  9.0
</event>
<event>
 8    1   5.1859766E+00   4.6460000E+02  -1.0000000E+00   9.4310000E-02
       11   -1    0    0    0    0  0.00000000000E+00  0.00000000000E+00  2.33469866190E+02  2.33469866190E+02  0.00000000000E+00  0.0000E+00  9.0
      -11   -1    0    0    0    0  0.00000000000E+00  0.00000000000E+00 -2.31102827310E+02  2.31102827310E+02  0.00000000000E+00  0.0000E+00  9.0
       24    2    1    2    0    0  9.38107042245E+01 -1.35785335262E+02 -1.41436150670E+02  2.31362198951E+02  7.92854140927E+01  3.1222E-14  9.0
      -24    2    1    2    0    0 -9.38107042245E+01  1.35785335262E+02  1.43803189560E+02  2.33210494550E+02  8.04342709393E+01  1.6702E-13  9.0
       -1    1    3    3    0  500  5.07083997604E+00 -5.29257725853E+01 -7.79473705188E+01  9.43538202332E+01  0.00000000000E+00  0.0000E+00  9.0
        2    1    3    3  500    0  8.87398642484E+01 -8.28595626765E+01 -6.34887801509E+01  1.37008378718E+02  0.00000000000E+00  0.0000E+00  9.0
        3    1    4    4  504    0 -1.08024536988E+02  1.25126283725E+02  1.34711767437E+02  2.13244338157E+02  0.00000000000E+00  0.0000E+00  9.0
       -4    1    4    4    0  504  1.42138327634E+01  1.06590515371E+01  9.09142212298E+00  1.99661563929E+01  5.87386917370E-01  0.0000E+00  9.0
</event>
<event>
 8    1   5.1859766E+00   2.1280000E+02  -1.0000000E+00   1.0400000E-01
       11   -1    0    0    0    0  0.00000000000E+00  0.00000000000E+00  2.49999983060E+02  2.49999983060E+02  0.00000000000E+00  0.0000E+00  9.0
      -11   -1    0    0    0    0  0.00000000000E+00  0.00000000000E+00 -4.52667360680E+01  4.52667360680E+01  0.00000000000E+00  0.0000E+00  9.0
       24    2    1    2    0    0  1.77457205975E+01 -8.23155307905E+00  9.67243742599E+00  8.35116609936E+01  8.06100019262E+01  2.1714E-14  9.0
      -24    2    1    2    0    0 -1.77457205975E+01  8.23155307905E+00  1.95060809573E+02  2.11755058141E+02  8.00550819844E+01  1.5353E-13  9.0
       -3    1    3    3    0  500  2.12831818748E+01  2.88162480470E+01 -1.50197272095E+01  3.88451050670E+01  0.00000000000E+00  0.0000E+00  9.0
        4    1    3    3  500    0 -3.53746127730E+00 -3.70478011261E+01  2.46921646355E+01  4.46665559266E+01  5.87386917370E-01  0.0000E+00  9.0
       13    1    4    4    0    0  1.22087789440E+01 -1.21802022369E+01  4.56314188935E+00  1.78394239321E+01  1.05700000000E-01  0.0000E+00  9.0
      -14    1    4    4    0    0 -2.99544995415E+01  2.04117553159E+01  1.90497667684E+02  1.93915634209E+02  0.00000000000E+00  0.0000E+00  9.0
</event>
<event>
 8    1   5.1859766E+00   4.7240000E+02  -1.0000000E+00   9.4120000E-02
       11   -1    0    0    0    0  0.00000000000E+00  0.00000000000E+00  2.23165472830E+02  2.23165472830E+02  0.00000000000E+00  0.0000E+00  9.0
      -11   -1    0    0    0    0  0.00000000000E+00  0.00000000000E+00 -2.49999994600E+02  2.49999994600E+02  0.00000000000E+00  0.0000E+00  9.0
       24    2    1    2    0    0 -1.78409626538E+02  1.01434690815E+02  7.27706186105E+01  2.31707926517E+02  7.92086417979E+01  2.7231E-14  9.0
      -24    2    1    2    0    0  1.78409626538E+02 -1.01434690815E+02 -9.96051403785E+01  2.41457540915E+02  7.91300747664E+01  6.3068E-14  9.0
      -13    1    3    3    0    0 -1.16434050677E+02  5.78342449778E+01  5.08775320941E+00  1.30106050799E+02  1.05700000000E-01  0.0000E+00  9.0
       14    1    3    3    0    0 -6.19755758612E+01  4.36004458374E+01  6.76828654011E+01  1.01601875718E+02  0.00000000000E+00  0.0000E+00  9.0
       13    1    4    4    0    0  9.56133440798E+01 -2.23772681193E+01 -1.55184146079E+01  9.94157233995E+01  1.05700000000E-01  0.0000E+00  9.0
      -14    1    4    4    0    0  8.27962824583E+01 -7.90574226958E+01 -8.40867257705E+01  1.42041817515E+02  0.00000000000E+00  0.0000E+00  9.0
</event>
<event>
 8    1   5.1859766E+00   5.0000000E+02  -1.0000000E+00   9.3490000E-02
       11   -1    0    0    0    0  0.00000000000E+00  0.00000000000E+00  2.50000000000E+02  2.50000000000E+02  0.00000000000E+00  0.0000E+00  9.0
      -11   -1    0    0    0    0  0.00000000000E+00  0.00000000000E+00 -2.49982194210E+02  2.49982194210E+02  0.00000000000E+00  0.0000E+00  9.0
       24    2    1    2    0    0 -4.45760369452E+01  8.73356629460E+01 -2.16308874583E+02  2.49068028137E+02  7.50387388255E+01  3.1267E-14  9.0
      -24    2    1    2    0    0  4.45760369452E+01 -8.73356629460E+01  2.16326680373E+02  2.50914166074E+02  8.09082505262E+01  8.1857E-14  9.0
       -1    1    3    3    0  500 -1.02466781599E+01 -4.48260819074E+00 -8.21746560495E+01  8.29322752995E+01  0.00000000000E+00  0.0000E+00  9.0
        2    1    3    3  500    0 -3.43293587852E+01  9.18182711367E+01 -1.34134218534E+02  1.66135752837E+02  0.00000000000E+00  0.0000E+00  9.0
        3    1    4    4  504    0  6.49124740678E+01 -6.58212656369E+01  1.89984247605E+02  2.11281997902E+02  0.00000000000E+00  0.0000E+00  9.0
       -4    1    4    4    0  504 -2.03364371226E+01 -2.15143973091E+01  2.63424327684E+01  3.96321681713E+01  5.87386917370E-01  0.0000E+00  9.0
</event>
<event>
 8    1   5.1859766E+00   4.9760000E+02  -1.0000000E+00   9.3540000E-02
       11   -1    0    0    0    0  0.00000000000E+00  0.00000000000E+00  2.50000000000E+02  2.50000000000E+02  0.00000000000E+00  0.0000E+00  9.0
      -11   -1    0    0    0    0  0.00000000000E+00  0.00000000000E+00 -2.47615657630E+02  2.47615657630E+02  0.00000000000E+00  0.0000E+00  9.0
       24    2    1    2    0    0  1.06782781072E+02  3.84891486714E+01 -2.05863818088E+02  2.47096047845E+02  7.61089243366E+01  4.5269E-14  9.0
      -24    2    1    2    0    0 -1.06782781072E+02 -3.84891486714E+01  2.08248160458E+02  2.50519609787E+02  8.06771445598E+01  2.5651E-13  9.0
       -3    1    3    3    0  500  5.53243819586E+01  5.87610238978E+01 -1.10194907369E+02  1.36589028764E+02  0.00000000000E+00  0.0000E+00  9.0
        4    1    3    3  500    0  5.14583991135E+01 -2.02718752264E+01 -9.56689107192E+01  1.10507019081E+02  5.87386917370E-01  0.0000E+00  9.0
        3    1    4    4  504    0 -1.06646182071E+01 -4.17416871413E+01  6.47295301470E+01  7.77561225882E+01  0.00000000000E+00  0.0000E+00  9.0
       -4    1    4    4    0  504 -9.61181628650E+01  3.25253846991E+00  1.43518630311E+02  1.72763487198E+02  5.87386917370E-01  0.0000E+00  9.0
</event>
<event>
 8    1   5.1859766E+00   5.0000000E+02  -1.0000000E+00   9.3490000E-02
       11   -1    0    0    0    0  0.00000000000E+00  0.00000000000E+00  2.49977697380E+02  2.49977697380E+02  0.00000000000E+00  0.0000E+00  9.0
      -11   -1    0    0    0    0  0.00000000000E+00  0.00000000000E+00 -2.49999210730E+02  2.49999210730E+02  0.00000000000E+00  0.0000E+00  9.0
       24    2    1    2    0    0 -3.29924781700E+01 -1.87360242010E+01 -2.34503312241E+02  2.49563290536E+02  7.64884979085E+01  1.6674E-13  9.0
      -24    2    1    2    0    0  3.29924781700E+01  1.87360242010E+01  2.34481798891E+02  2.50413617573E+02  7.92825556853E+01  3.9153E-14  9.0
       -1    1    3    3    0  500 -4.25252388772E+00  1.52794342568E+01 -6.31622606088E+00  1.70716074895E+01  0.00000000000E+00  0.0000E+00  9.0
        2    1    3    3  500    0 -2.87399542823E+01 -3.40154584578E+01 -2.28187086180E+02  2.32491683046E+02  0.00000000000E+00  0.0000E+00  9.0
        1    1    4    4  504    0  3.35734621790E+01 -1.91010325889E+01  5.64235806926E+01  6.83787047758E+01  0.00000000000E+00  0.0000E+00  9.0
       -2    1    4    4    0  504 -5.80984009019E-01  3.78370567899E+01  1.78058218198E+02  1.82034912797E+02  0.00000000000E+00  0.0000E+00  9.0
</event>
<event>
 8    1   5.1859766E+00   4.9640000E+02  -1.0000000E+00   9.3570000E-02
       11   -1    0    0    0    0  0.00000000000E+00  0.00000000000E+00  2.46402776010E+02  2.46402776010E+02  0.00000000000E+00  0.0000E+00  9.0
      -11   -1    0    0    0    0  0.00000000000E+00  0.00000000000E+00 -2.49965899690E+02  2.49965899690E+02  0.00000000000E+00  0.0000E+00  9.0
       24    2    1    2    0    0 -1.79737194079E+02 -7.52204578342E+01 -1.33270012162E+02  2.49399347882E+02  8.04708790203E+01  5.9753E-14  9.0
      -24    2    1    2    0    0  1.79737194079E+02  7.52204578342E+01  1.29706888482E+02  2.46969327808E+02  7.87806813006E+01  3.0471E-14  9.0
       -3    1    3    3    0  500 -1.73912198966E+01 -1.92051002790E+00  1.05741186274E+01  2.04439446538E+01  0.00000000000E+00  0.0000E+00  9.0
        4    1    3    3  500    0 -1.62345974183E+02 -7.32999478063E+01 -1.43844130789E+02  2.28955403228E+02  5.87386917370E-01  0.0000E+00  9.0
        3    1    4    4  504    0  1.33275502399E+02  2.32438993593E+01  5.87491600997E+01  1.47492719175E+02  0.00000000000E+00  0.0000E+00  9.0
       -4    1    4    4    0  504  4.64616916798E+01  5.19765584748E+01  7.09577283818E+01  9.94766086331E+01  5.87386917370E-01  0.0000E+00  9.0
</event>
<event>
 8    1   5.1859766E+00   4.9670000E+02  -1.0000000E+00   9.3560000E-02
       11   -1    0    0    0    0  0.00000000000E+00  0.00000000000E+00  2.50000000000E+02  2.50000000000E+02  0.00000000000E+00  0.0000E+00  9.0
      -11   -1    0    0    0    0  0.00000000000E+00  0.00000000000E+00 -2.46727137530E+02  2.46727137530E+02  0.00000000000E+00  0.0000E+00  9.0
       24    2    1    2    0    0  4.73814974540E+01  8.89935377231E+01 -2.08450065920E+02  2.47695326978E+02  8.79584502325E+01  6.5306E-14  9.0
      -24    2    1    2    0    0 -4.73814974540E+01 -8.89935377231E+01  2.11722928390E+02  2.49031810557E+02  8.38175888806E+01  3.5740E-13  9.0
       -3    1    3    3    0  500  1.62578090209E+01 -6.25962392637E+00 -9.38825337653E+01  9.54852312771E+01  0.00000000000E+00  0.0000E+00  9.0
        4    1    3    3  500    0  3.11236884331E+01  9.52531616495E+01 -1.14567532155E+02  1.52210095701E+02  5.87386917370E-01  0.0000E+00  9.0
        3    1    4    4  504    0 -1.16792418293E+01 -7.76437126422E+00  1.22143193043E+02  1.22945718745E+02  0.00000000000E+00  0.0000E+00  9.0
       -4    1    4    4    0  504 -3.57022556247E+01 -8.12291664589E+01  8.95797353467E+01  1.26086091812E+02  5.87386917370E-01  0.0000E+00  9.0
</event>
<event>
 8    1   5.1859766E+00   3.8540000E+02  -1.0000000E+00   9.6460000E-02
       11   -1    0    0    0    0  0.00000000000E+00  0.00000000000E+00  1.48666959100E+02  1.48666959100E+02  0.00000000000E+00  0.0000E+00  9.0
      -11   -1    0    0    0    0  0.00000000000E+00  0.00000000000E+00 -2.49836505350E+02  2.49836505350E+02  0.00000000000E+00  0.0000E+00  9.0
       24    2    1    2    0    0 -5.91739654481E+01 -6.38595573592E+01 -2.09859858963E+02  2.37830823213E+02  7.03046144502E+01  4.7613E-14  9.0
      -24    2    1    2    0    0  5.91739654481E+01  6.38595573592E+01  1.08690312713E+02  1.60672641225E+02  8.01405784076E+01  2.8581E-13  9.0
       -3    1    3    3    0  500  1.13463878016E+01 -1.02491321175E+01 -7.45493097509E+01  7.61011485435E+01  0.00000000000E+00  0.0000E+00  9.0
        4    1    3    3  500    0 -7.05203532498E+01 -5.36104252417E+01 -1.35310549212E+02  1.61729674669E+02  5.87386917370E-01  0.0000E+00  9.0
       13    1    4    4    0    0 -7.94667059385E+00 -1.11713404695E+01  2.96965036422E+01  3.27084380929E+01  1.05700000000E-01  0.0000E+00  9.0
      -14    1    4    4    0    0  6.71206360420E+01  7.50308978287E+01  7.89938090712E+01  1.27964203132E+02  0.00000000000E+00  0.0000E+00  9.0
</event>
<event>
 8    1   5.1859766E+00   4.8670000E+02  -1.0000000E+00   9.3790000E-02
       11   -1    0    0    0    0  0.00000000000E+00  0.00000000000E+00  2.36850848640E+02  2.36850848640E+02  0.00000000000E+00  0.0000E+00  9.0
      -11   -1    0    0    0    0  0.00000000000E+00  0.00000000000E+00 -2.50000000000E+02  2.50000000000E+02  0.00000000000E+00  0.0000E+00  9.0
       24    2    1    2    0    0 -2.26464507552E+01 -1.99857457041E+01 -2.34358127438E+02  2.49647333212E+02  8.05466778984E+01  1.1011E-13  9.0
      -24    2    1    2    0    0  2.26464507552E+01  1.99857457041E+01  2.21208976088E+02  2.37203515429E+02  8.01236848060E+01  4.9366E-14  9.0
       -1    1    3    3    0  500  2.83772370971E+01 -1.67546175965E+01 -1.18772767308E+02  1.23259705703E+02  0.00000000000E+00  0.0000E+00  9.0
        2    1    3    3  500    0 -5.10236878523E+01 -3.23112810756E+00 -1.15585360130E+02  1.26387627508E+02  0.00000000000E+00  0.0000E+00  9.0
        3    1    4    4  504    0 -7.26812621572E+00  2.00150481058E+01  1.98506055008E+02  1.99644888951E+02  0.00000000000E+00  0.0000E+00  9.0
       -4    1    4    4    0  504  2.99145769709E+01 -2.93024017511E-02  2.27029210799E+01  3.75586264782E+01  5.87386917370E-01  0.0000E+00  9.0
</event>
<event>
 8    1   5.1859766E+00   5.0000000E+02  -1.0000000E+00   9.3490000E-02
       11   -1    0    0    0    0  0.00000000000E+00  0.00000000000E+00  2.49999942030E+02  2.49999942030E+02  0.00000000000E+00  0.0000E+00  9.0
      -11   -1    0    0    0    0  0.00000000000E+00  0.00000000000E+00 -2.49972660020E+02  2.49972660020E+02  0.00000000000E+00  0.0000E+00  9.0
       24    2    1    2    0    0  2.59024069696E+01  1.63829417891E+01 -2.35427177919E+02  2.50225325198E+02  7.90406338485E+01  8.6944E-14  9.0
      -24    2    1    2    0    0 -2.59024069696E+01 -1.63829417891E+01  2.35454459929E+02  2.49747276859E+02  7.74310282093E+01  2.1446E-13  9.0
       -3    1    3    3    0  500  3.06244063851E+01  2.08557553685E+01 -2.39618035621E+02  2.42465708489E+02  0.00000000000E+00  0.0000E+00  9.0
        4    1    3    3  500    0 -4.72199941548E+00 -4.47281357935E+00  4.19085770210E+00  7.75961670866E+00  5.87386917370E-01  0.0000E+00  9.0
        3    1    4    4  504    0  2.44512523906E+01  9.27889075051E+00  8.90970723564E+01  9.28560706659E+01  0.00000000000E+00  0.0000E+00  9.0
       -4    1    4    4    0  504 -5.03536593603E+01 -2.56618325396E+01  1.46357387573E+02  1.56891206193E+02  5.87386917370E-01  0.0000E+00  9.0
</event>
<event>
 8    1   5.1859766E+00   5.0000000E+02  -1.0000000E+00   9.3490000E-02
       11   -1    0    0    0    0  0.00000000000E+00  0.00000000000E+00  2.49999957120E+02  2.49999957120E+02  0.00000000000E+00  0.0000E+00  9.0
      -11   -1    0    0    0    0  0.00000000000E+00  0.00000000000E+00 -2.49981245890E+02  2.49981245890E+02  0.00000000000E+00  0.0000E+00  9.0
       24    2    1    2    0    0  5.14844474148E-01  1.07097589510E+01 -2.36468546183E+02  2.50077427358E+02  8.06621493528E+01  5.5638E-14  9.0
      -24    2    1    2    0    0 -5.14844474148E-01 -1.07097589510E+01  2.36487257413E+02  2.49903775654E+02  8.00669105546E+01  1.3830E-14  9.0
       -1    1    3    3    0  500  1.34132251153E+01 -2.00905221142E+01 -2.09150015559E+01  3.19527929436E+01  0.00000000000E+00  0.0000E+00  9.0
        2    1    3    3  500    0 -1.28983806412E+01  3.08002810652E+01 -2.15553544627E+02  2.18124634414E+02  0.00000000000E+00  0.0000E+00  9.0
       13    1    4    4    0    0 -3.88871836581E+01 -8.38614014976E+00  8.89519300200E+01  9.74422774069E+01  1.05700000000E-01  0.0000E+00  9.0
      -14    1    4    4    0    0  3.83723391839E+01 -2.32361880128E+00  1.47535327393E+02  1.52461498247E+02  0.00000000000E+00  0.0000E+00  9.0
</event>
<event>
 8    1   5.1859766E+00   4.9680000E+02  -1.0000000E+00   9.3560000E-02
       11   -1    0    0    0    0  0.00000000000E+00  0.00000000000E+00  2.49867904240E+02  2.49867904240E+02  0.00000000000E+00  0.0000E+00  9.0
      -11   -1    0    0    0    0  0.00000000000E+00  0.00000000000E+00 -2.46979387830E+02  2.46979387830E+02  0.00000000000E+00  0.0000E+00  9.0
       24    2    1    2    0    0 -3.98437612561E+00 -2.00167954417E+02  1.23368208269E+02  2.50177280253E+02  8.53573167030E+01  9.5149E-15  9.0
      -24    2    1    2    0    0  3.98437612561E+00  2.00167954417E+02 -1.20479691859E+02  2.46670011823E+02  7.90420986153E+01  3.1770E-15  9.0
       -1    1    3    3    0  500 -8.57468260698E+00 -1.39391041920E+02  1.27480035947E+02  1.89088728682E+02  0.00000000000E+00  0.0000E+00  9.0
        2    1    3    3  500    0  4.59030648137E+00 -6.07769124972E+01 -4.11182767796E+00  6.10885515718E+01  0.00000000000E+00  0.0000E+00  9.0
        1    1    4    4  504    0  3.11144112227E+01  3.31358759842E+01 -3.30351725671E+01  5.61908843987E+01  0.00000000000E+00  0.0000E+00  9.0
       -2    1    4    4    0  504 -2.71300350971E+01  1.67032078433E+02 -8.74445192918E+01  1.90479127424E+02  0.00000000000E+00  0.0000E+00  9.0
</event>
<event>
 8    1   5.1859766E+00   4.9980000E+02  -1.0000000E+00   9.3490000E-02
       11   -1    0    0    0    0  0.00000000000E+00  0.00000000000E+00  2.50000000000E+02  2.50000000000E+02  0.00000000000E+00  0.0000E+00  9.0
      -11   -1    0    0    0    0  0.00000000000E+00  0.00000000000E+00 -2.49832101430E+02  2.49832101430E+02  0.00000000000E+00  0.0000E+00  9.0
       24    2    1    2    0    0 -1.86243932275E+02  1.09751588765E+02 -9.03440471040E+01  2.52043275517E+02  9.29061480231E+01  1.3992E-14  9.0
      -24    2    1    2    0    0  1.86243932275E+02 -1.09751588765E+02  9.05119456710E+01  2.47788825917E+02  8.04653738865E+01  4.1532E-14  9.0
      -13    1    3    3    0    0 -1.30686965915E+02  2.83510748737E+01 -3.19528644045E+01  1.37491320536E+02  1.05700000000E-01  0.0000E+00  9.0
       14    1    3    3    0    0 -5.55569663596E+01  8.14005138916E+01 -5.83911826995E+01  1.14551954981E+02  0.00000000000E+00  0.0000E+00  9.0
        3    1    4    4  500    0  1.54596172023E+02 -5.35822385924E+01  8.11541782968E+01  1.82639079475E+02  0.00000000000E+00  0.0000E+00  9.0
       -4    1    4    4    0  500  3.16477602520E+01 -5.61693501729E+01  9.35776737422E+00  6.51497464418E+01  5.87386917370E-01  0.0000E+00  9.0
</event>
<event>
 8    1   5.1859766E+00   4.8760000E+02  -1.0000000E+00   9.3770000E-02
       11   -1    0    0    0    0  0.00000000000E+00  0.00000000000E+00  2.47247993220E+02  2.47247993220E+02  0.00000000000E+00  0.0000E+00  9.0
      -11   -1    0    0    0    0  0.00000000000E+00  0.00000000000E+00 -2.40405050300E+02  2.40405050300E+02  0.00000000000E+00  0.0000E+00  9.0
       24    2    1    2    0    0  4.55265596450E+01 -1.54062612817E+01 -2.21703667870E+02  2.40362086352E+02  7.94442929912E+01  3.9282E-16  9.0
      -24    2    1    2    0    0 -4.55265596450E+01  1.54062612817E+01  2.28546610790E+02  2.47290957166E+02  8.12972550128E+01  9.9134E-14  9.0
       -3    1    3    3    0  500  5.89179497847E+01 -3.35842150766E+01 -1.87371850295E+02  1.99267244152E+02  0.00000000000E+00  0.0000E+00  9.0
        4    1    3    3  500    0 -1.33913901397E+01  1.81779537949E+01 -3.43318175751E+01  4.10948422000E+01  5.87386917370E-01  0.0000E+00  9.0
        3    1    4    4  504    0  8.58870818536E+00  1.31282332725E+01  1.55828189870E+02  1.56615903328E+02  0.00000000000E+00  0.0000E+00  9.0
       -4    1    4    4    0  504 -5.41152678303E+01  2.27802800920E+00  7.27184209198E+01  9.06750538374E+01  5.87386917370E-01  0.0000E+00  9.0
</event>
<event>
 8    1   5.1859766E+00   4.7330000E+02  -1.0000000E+00   9.4100000E-02
       11   -1    0    0    0    0  0.00000000000E+00  0.00000000000E+00  2.28177723490E+02  2.28177723490E+02  0.00000000000E+00  0.0000E+00  9.0
      -11   -1    0    0    0    0  0.00000000000E+00  0.00000000000E+00 -2.45454114470E+02  2.45454114470E+02  0.00000000000E+00  0.0000E+00  9.0
       24    2    1    2    0    0 -4.20993353365E+01 -3.69010406976E+01 -2.24420634192E+02  2.45344687625E+02  8.18251419432E+01  4.7028E-14  9.0
      -24    2    1    2    0    0  4.20993353365E+01  3.69010406976E+01  2.07144243212E+02  2.28287150324E+02  7.79246088653E+01  7.4266E-14  9.0
       -3    1    3    3    0  500 -1.61949507395E+01 -2.53822399990E+01 -2.12437586962E+02  2.14560627542E+02  0.00000000000E+00  0.0000E+00  9.0
        4    1    3    3  500    0 -2.59043845970E+01 -1.15188006986E+01 -1.19830472304E+01  3.07840600831E+01  5.87386917370E-01  0.0000E+00  9.0
        1    1    4    4  504    0 -1.55150304450E+01 -6.01862418438E+00  8.47222742454E+01  8.63412054589E+01  0.00000000000E+00  0.0000E+00  9.0
       -2    1    4    4    0  504  5.76143657815E+01  4.29196648820E+01  1.22421968967E+02  1.41945944865E+02  0.00000000000E+00  0.0000E+00  9.0
</event>
<event>
 8    1   5.1859766E+00   4.9960000E+02  -1.0000000E+00   9.3500000E-02
       11   -1    0    0    0    0  0.00000000000E+00  0.00000000000E+00  2.49649676790E+02  2.49649676790E+02  0.00000000000E+00  0.0000E+00  9.0
      -11   -1    0    0    0    0  0.00000000000E+00  0.00000000000E+00 -2.50000000000E+02  2.50000000000E+02  0.00000000000E+00  0.0000E+00  9.0
       24    2    1    2    0    0  9.33754840911E+01 -1.80627686850E+02 -1.20538018136E+02  2.50077142331E+02  8.16322302397E+01  8.8238E-14  9.0
      -24    2    1    2    0    0 -9.33754840911E+01  1.80627686850E+02  1.20187694936E+02  2.49572534457E+02  8.05979258744E+01  1.4126E-13  9.0
      -13    1    3    3    0    0  1.03581602146E+02 -1.27084272372E+02 -8.19288050479E+01  1.83280934242E+02  1.05700000000E-01  0.0000E+00  9.0
       14    1    3    3    0    0 -1.02061180551E+01 -5.35434144782E+01 -3.86092130881E+01  6.67962080886E+01  0.00000000000E+00  0.0000E+00  9.0
       13    1    4    4    0    0 -6.41573327493E+01  4.11482222088E+01  4.21789154731E+01  8.71114895948E+01  1.05700000000E-01  0.0000E+00  9.0
      -14    1    4    4    0    0 -2.92181513418E+01  1.39479464642E+02  7.80087794629E+01  1.62461044862E+02  0.00000000000E+00  0.0000E+00  9.0
</event>
<event>
 8    1   5.1859766E+00   2.2100000E+02  -1.0000000E+00   1.0350000E-01
       11   -1    0    0    0    0  0.00000000000E+00  0.00000000000E+00  2.49999990010E+02  2.49999990010E+02  0.00000000000E+00  0.0000E+00  9.0
      -11   -1    0    0    0    0  0.00000000000E+00  0.00000000000E+00 -4.88375172340E+01  4.88375172340E+01  0.00000000000E+00  0.0000E+00  9.0
       24    2    1    2    0    0 -2.38260534539E+01  6.46939441827E+00  5.69670982263E+00  8.44441787261E+01  8.05532924876E+01  1.0152E-14  9.0
      -24    2    1    2    0    0  2.38260534539E+01 -6.46939441827E+00  1.95465762958E+02  2.14393328523E+02  8.45464424984E+01  6.0710E-14  9.0
       -1    1    3    3    0  500 -1.46406869766E+01  2.30690110574E+01 -3.20997893604E+01  4.21535937174E+01  0.00000000000E+00  0.0000E+00  9.0
        2    1    3    3  500    0 -9.18536647735E+00 -1.65996166391E+01  3.77964991830E+01  4.22905850087E+01  0.00000000000E+00  0.0000E+00  9.0
        1    1    4    4  504    0  1.86004159582E+01  2.49039374286E+01  2.21121527068E+01  3.81461514520E+01  0.00000000000E+00  0.0000E+00  9.0
       -2    1    4    4    0  504  5.22563749571E+00 -3.13733318469E+01  1.73353610252E+02  1.76247177071E+02  0.00000000000E+00  0.0000E+00  9.0
</event>
<event>
 8    1   5.1859766E+00   4.9430000E+02  -1.0000000E+00   9.3620000E-02
       11   -1    0    0    0    0  0.00000000000E+00  0.00000000000E+00  2.44460863690E+02  2.44460863690E+02  0.00000000000E+00  0.0000E+00  9.0
      -11   -1    0    0    0    0  0.00000000000E+00  0.00000000000E+00 -2.49862099110E+02  2.49862099110E+02  0.00000000000E+00  0.0000E+00  9.0
       24    2    1    2    0    0 -1.68349569919E+02 -1.37720638618E+02  8.43957083993E+01  2.46069671702E+02  7.82246491962E+01  3.5123E-14  9.0
      -24    2    1    2    0    0  1.68349569919E+02  1.37720638618E+02 -8.97969438183E+01  2.48253291099E+02  7.91053312295E+01  3.2926E-13  9.0
       -1    1    3    3    0  500 -5.50411723956E+01 -9.54985819961E+01  4.01880411466E+01  1.17322582963E+02  0.00000000000E+00  0.0000E+00  9.0
        2    1    3    3  500    0 -1.13308397523E+02 -4.22220566220E+01  4.42076672526E+01  1.28747088739E+02  0.00000000000E+00  0.0000E+00  9.0
        3    1    4    4  504    0  1.66962240828E+02  1.10615566352E+02 -9.31821240480E+01  2.20896133112E+02  0.00000000000E+00  0.0000E+00  9.0
       -4    1    4    4    0  504  1.38732909150E+00  2.71050722661E+01  3.38518022970E+00  2.73571579872E+01  5.87386917370E-01  0.0000E+00  9.0
</event>
<event>
 8    1   5.1859766E+00   1.9120000E+02  -1.0000000E+00   1.0550000E-01
       11   -1    0    0    0    0  0.00000000000E+00  0.00000000000E+00  2.49999999760E+02  2.49999999760E+02  0.00000000000E+00  0.0000E+00  9.0
      -11   -1    0    0    0    0  0.00000000000E+00  0.00000000000E+00 -3.65538955860E+01  3.65538955860E+01  0.00000000000E+00  0.0000E+00  9.0
       24    2    1    2    0    0  7.53019872137E+00  4.19133037834E+01  1.44145495888E+02  1.69139318047E+02  7.75677510178E+01  1.0701E-13  9.0
      -24    2    1    2    0    0 -7.53019872137E+00 -4.19133037834E+01  6.93006082912E+01  1.17414577303E+02  8.46769137772E+01  1.7821E-13  9.0
      -13    1    3    3    0    0 -3.16020201975E-01 -2.23860221912E+01  5.08563448074E+01  5.55662922821E+01  1.05700000000E-01  0.0000E+00  9.0
       14    1    3    3    0    0  7.84621892334E+00  6.42993259746E+01  9.32891510804E+01  1.13573025765E+02  0.00000000000E+00  0.0000E+00  9.0
        3    1    4    4  500    0  2.04009695116E+01  1.87632335463E+01  2.44009093880E+01  3.69278061775E+01  0.00000000000E+00  0.0000E+00  9.0
       -4    1    4    4    0  500 -2.79311682329E+01 -6.06765373297E+01  4.48996989032E+01  8.04867711252E+01  5.87386917370E-01  0.0000E+00  9.0
</event>
<event>
 8    1   5.1859766E+00   5.0000000E+02  -1.0000000E+00   9.3490000E-02
       11   -1    0    0    0    0  0.00000000000E+00  0.00000000000E+00  2.49997852200E+02  2.49997852200E+02  0.00000000000E+00  0.0000E+00  9.0
      -11   -1    0    0    0    0  0.00000000000E+00  0.00000000000E+00 -2.50000000000E+02  2.50000000000E+02  0.00000000000E+00  0.0000E+00  9.0
       24    2    1    2    0    0  1.41086773085E+01 -3.15790790269E+01 -2.36280266262E+02  2.52265558874E+02  8.13219217782E+01  5.6272E-14  9.0
      -24    2    1    2    0    0 -1.41086773085E+01  3.15790790269E+01  2.36278118462E+02  2.47732293328E+02  6.59366884688E+01  6.3181E-14  9.0
       -3    1    3    3    0  500 -3.24899645408E+01 -2.25326148198E+00 -7.25481155497E+01  7.95229781446E+01  0.00000000000E+00  0.0000E+00  9.0
        4    1    3    3  500    0  4.65986418493E+01 -2.93258175449E+01 -1.63732150712E+02  1.72742580729E+02  5.87386917370E-01  0.0000E+00  9.0
        3    1    4    4  504    0 -2.05238675890E+00 -1.58705012033E+01  1.82408235125E+01  2.42654639821E+01  0.00000000000E+00  0.0000E+00  9.0
       -4    1    4    4    0  504 -1.20562905496E+01  4.74495802302E+01  2.18037294949E+02  2.23466829346E+02  5.87386917370E-01  0.0000E+00  9.0
</event>
<event>
 8    1   5.1859766E+00   5.0000000E+02  -1.0000000E+00   9.3490000E-02
       11   -1    0    0    0    0  0.00000000000E+00  0.00000000000E+00  2.49999714520E+02  2.49999714520E+02  0.00000000000E+00  0.0000E+00  9.0
      -11   -1    0    0    0    0  0.00000000000E+00  0.00000000000E+00 -2.49953643810E+02  2.49953643810E+02  0.00000000000E+00  0.0000E+00  9.0
       24    2    1    2    0    0 -3.35267971673E+01  4.04841349662E+01 -2.30689459513E+02  2.49807288715E+02  8.01438921705E+01  2.5845E-14  9.0
      -24    2    1    2    0    0  3.35267971673E+01 -4.04841349662E+01  2.30735530233E+02  2.50146069615E+02  8.10626912918E+01  7.2227E-14  9.0
      -13    1    3    3    0    0 -5.98838738505E+00  6.05115152402E+01 -1.64372283942E+02  1.75259131463E+02  1.05700000000E-01  0.0000E+00  9.0
       14    1    3    3    0    0 -2.75384097823E+01 -2.00273802740E+01 -6.63171755708E+01  7.45481572520E+01  0.00000000000E+00  0.0000E+00  9.0
        3    1    4    4  500    0 -1.41258843769E+01  6.62289849322E+00  7.96761540483E+00  1.75181702560E+01  0.00000000000E+00  0.0000E+00  9.0
       -4    1    4    4    0  500  4.76526815442E+01 -4.71070334595E+01  2.22767914828E+02  2.32627899359E+02  5.87386917370E-01  0.0000E+00  9.0
</event>
<event>
 8    1   5.1859766E+00   4.9800000E+02  -1.0000000E+00   9.3530000E-02
       11   -1    0    0    0    0  0.00000000000E+00  0.00000000000E+00  2.48022003090E+02  2.48022003090E+02  0.00000000000E+00  0.0000E+00  9.0
      -11   -1    0    0    0    0  0.00000000000E+00  0.00000000000E+00 -2.50000000000E+02  2.50000000000E+02  0.00000000000E+00  0.0000E+00  9.0
       24    2    1    2    0    0 -4.76996195805E+00  2.37856675098E+01 -2.35095149618E+02  2.50138179443E+02  8.19198933426E+01  2.6806E-13  9.0
      -24    2    1    2    0    0  4.76996195805E+00 -2.37856675098E+01  2.33117152708E+02  2.47883823640E+02  8.07110439759E+01  1.2615E-14  9.0
      -13    1    3    3    0    0  2.76335247104E+01  3.76587898219E+01 -1.67678232382E+02  1.74062623576E+02  1.05700000000E-01  0.0000E+00  9.0
       14    1    3    3    0    0 -3.24034866684E+01 -1.38731223120E+01 -6.74169172356E+01  7.60755558672E+01  0.00000000000E+00  0.0000E+00  9.0
        3    1    4    4  500    0  1.60700453828E+01  2.13880809773E+01  1.52110762052E+02  1.54445395847E+02  0.00000000000E+00  0.0000E+00  9.0
       -4    1    4    4    0  500 -1.13000834248E+01 -4.51737484871E+01  8.10063906561E+01  9.34384277923E+01  5.87386917370E-01  0.0000E+00  9.0
</event>
<event>
 8    1   5.1859766E+00   4.8550000E+02  -1.0000000E+00   9.3820000E-02
       11   -1    0    0    0    0  0.00000000000E+00  0.00000000000E+00  2.49999804050E+02  2.49999804050E+02  0.00000000000E+00  0.0000E+00  9.0
      -11   -1    0    0    0    0  0.00000000000E+00  0.00000000000E+00 -2.35701123860E+02  2.35701123860E+02  0.00000000000E+00  0.0000E+00  9.0
       24    2    1    2    0    0 -1.14114419784E+02 -1.00335389722E+02 -1.63344650765E+02  2.38094098152E+02  8.31747161585E+01  1.1223E-14  9.0
      -24    2    1    2    0    0  1.14114419784E+02  1.00335389722E+02  1.77643330955E+02  2.47606829769E+02  8.16253507301E+01  1.9063E-15  9.0
      -13    1    3    3    0    0 -1.35107695591E+01 -4.66819699170E+01 -9.07067420851E+01  1.02905157507E+02  1.05700000000E-01  0.0000E+00  9.0
       14    1    3    3    0    0 -1.00603650225E+02 -5.36534198052E+01 -7.26379086803E+01  1.35188940645E+02  0.00000000000E+00  0.0000E+00  9.0
        1    1    4    4  500    0  1.38324984020E+01  6.09154545279E+01  8.51255371487E+01  1.05585925612E+02  0.00000000000E+00  0.0000E+00  9.0
       -2    1    4    4    0  500  1.00281921382E+02  3.94199351943E+01  9.25177938067E+01  1.42020904157E+02  0.00000000000E+00  0.0000E+00  9.0
</event>
<event>
 8    1   5.1859766E+00   4.6830000E+02  -1.0000000E+00   9.4220000E-02
       11   -1    0    0    0    0  0.00000000000E+00  0.00000000000E+00  2.48200147770E+02  2.48200147770E+02  0.00000000000E+00  0.0000E+00  9.0
      -11   -1    0    0    0    0  0.00000000000E+00  0.00000000000E+00 -2.20869563140E+02  2.20869563140E+02  0.00000000000E+00  0.0000E+00  9.0
       24    2    1    2    0    0 -5.84922551169E+01  5.96999749498E+01 -1.89495388578E+02  2.22082977073E+02  8.01680453525E+01  4.8872E-14  9.0
      -24    2    1    2    0    0  5.84922551169E+01 -5.96999749498E+01  2.16825973198E+02  2.46986733833E+02  8.36869949185E+01  3.4907E-14  9.0
       -3    1    3    3    0  500 -5.86702078948E+01  7.69976947881E+01 -1.72614039101E+02  1.97905140893E+02  0.00000000000E+00  0.0000E+00  9.0
        4    1    3    3  500    0  1.77952777922E-01 -1.72977198383E+01 -1.68813494769E+01  2.41778361800E+01  5.87386917370E-01  0.0000E+00  9.0
        3    1    4    4  504    0 -2.16443110408E+01 -1.57205571169E+01  5.36677835038E+01  5.99653491835E+01  0.00000000000E+00  0.0000E+00  9.0
       -4    1    4    4    0  504  8.01365661577E+01 -4.39794178329E+01  1.63158189695E+02  1.87021384650E+02  5.87386917370E-01  0.0000E+00  9.0
</event>
<event>
 8    1   5.1859766E+00   4.9350000E+02  -1.0000000E+00   9.3640000E-02
       11   -1    0    0    0    0  0.00000000000E+00  0.00000000000E+00  2.50000000000E+02  2.50000000000E+02  0.00000000000E+00  0.0000E+00  9.0
      -11   -1    0    0    0    0  0.00000000000E+00  0.00000000000E+00 -2.43533891880E+02  2.43533891880E+02  0.00000000000E+00  0.0000E+00  9.0
       24    2    1    2    0    0 -5.69805219910E+00  9.79188983676E+00 -2.29971749634E+02  2.43695574897E+02  7.98259274239E+01  8.1854E-14  9.0
      -24    2    1    2    0    0  5.69805219910E+00 -9.79188983676E+00  2.36437857754E+02  2.49838316979E+02  7.99248093257E+01  1.0180E-15  9.0
       -3    1    3    3    0  500  2.14127365125E+01  3.57985304802E+01 -9.87034279763E+01  1.07155992664E+02  0.00000000000E+00  0.0000E+00  9.0
        4    1    3    3  500    0 -2.71107887116E+01 -2.60066406434E+01 -1.31268321658E+02  1.36539582233E+02  5.87386917370E-01  0.0000E+00  9.0
       13    1    4    4    0    0  2.34772911331E+01  2.47321189325E+00  2.23326770225E+02  2.24571052114E+02  1.05700000000E-01  0.0000E+00  9.0
      -14    1    4    4    0    0 -1.77792389340E+01 -1.22651017300E+01  1.31110875291E+01  2.52672648642E+01  0.00000000000E+00  0.0000E+00  9.0
</event>
<event>
 8    1   5.1859766E+00   3.6640000E+02  -1.0000000E+00   9.7060000E-02
       11   -1    0    0    0    0  0.00000000000E+00  0.00000000000E+00  2.45620930240E+02  2.45620930240E+02  0.00000000000E+00  0.0000E+00  9.0
      -11   -1    0    0    0    0  0.00000000000E+00  0.00000000000E+00 -1.36635505660E+02  1.36635505660E+02  0.00000000000E+00  0.0000E+00  9.0
       24    2    1    2    0    0 -4.04099766028E+01 -1.57344990202E+02  2.74440500755E+01  1.83606160112E+02  8.10409402445E+01  4.7457E-13  9.0
      -24    2    1    2    0    0  4.04099766028E+01  1.57344990202E+02  8.15413745105E+01  1.98650275795E+02  8.01406523918E+01  1.2052E-14  9.0
       -1    1    3    3    0  500 -3.56225843203E+00 -9.14225241020E-01  2.25204667389E+01  2.28187842591E+01  0.00000000000E+00  0.0000E+00  9.0
        2    1    3    3  500    0 -3.68477181707E+01 -1.56430764961E+02  4.92358333658E+00  1.60787375853E+02  0.00000000000E+00  0.0000E+00  9.0
        3    1    4    4  504    0  4.90282277324E+01  3.96379349354E+01  2.57200143986E+01  6.80914983033E+01  0.00000000000E+00  0.0000E+00  9.0
       -4    1    4    4    0  504 -8.61825112963E+00  1.17707055267E+02  5.58213601119E+01  1.30558777492E+02  5.87386917370E-01  0.0000E+00  9.0
</event>
<event>
 8    1   5.1859766E+00   4.9100000E+02  -1.0000000E+00   9.3690000E-02
       11   -1    0    0    0    0  0.00000000000E+00  0.00000000000E+00  2.41114671260E+02  2.41114671260E+02  0.00000000000E+00  0.0000E+00  9.0
      -11   -1    0    0    0    0  0.00000000000E+00  0.00000000000E+00 -2.49988359910E+02  2.49988359910E+02  0.00000000000E+00  0.0000E+00  9.0
       24    2    1    2    0    0  5.07742706684E+01  1.10028678449E+02 -2.02390540751E+02  2.50090913296E+02  8.30614067088E+01  7.2506E-14  9.0
      -24    2    1    2    0    0 -5.07742706684E+01 -1.10028678449E+02  1.93516852101E+02  2.41012117881E+02  7.71604320554E+01  1.1146E-13  9.0
       -1    1    3    3    0  500  2.08161213778E+00  9.41229945998E+01 -1.47734641093E+02  1.75182748581E+02  0.00000000000E+00  0.0000E+00  9.0
        2    1    3    3  500    0  4.86926585306E+01  1.59056838490E+01 -5.46558996583E+01  7.49081647148E+01  0.00000000000E+00  0.0000E+00  9.0
        1    1    4    4  504    0 -6.15438336530E+01 -4.54818598181E+01  1.22536092388E+02  1.44469155777E+02  0.00000000000E+00  0.0000E+00  9.0
       -2    1    4    4    0  504  1.07695629846E+01 -6.45468186306E+01  7.09807597130E+01  9.65429621031E+01  0.00000000000E+00  0.0000E+00  9.0
</event>
<event>
 8    1   5.1859766E+00   2.0030000E+02  -1.0000000E+00   1.0490000E-01
       11   -1    0    0    0    0  0.00000000000E+00  0.00000000000E+00  4.02243040700E+01  4.02243040700E+01  0.00000000000E+00  0.0000E+00  9.0
      -11   -1    0    0    0    0  0.00000000000E+00  0.00000000000E+00 -2.49301473920E+02  2.49301473920E+02  0.00000000000E+00  0.0000E+00  9.0
       24    2    1    2    0    0  4.15075523029E+01  1.82178930651E+01 -1.44327518471E+02  1.67016995637E+02  7.07776498469E+01  8.6923E-14  9.0
      -24    2    1    2    0    0 -4.15075523029E+01 -1.82178930651E+01 -6.47496513800E+01  1.22508782354E+02  9.36008326574E+01  1.2618E-13  9.0
       -1    1    3    3    0  500  1.36891303291E+01  1.43335189268E+01  1.63767387468E-01  1.98209201035E+01  0.00000000000E+00  0.0000E+00  9.0
        2    1    3    3  500    0  2.78184219738E+01  3.88437413830E+00 -1.44491285858E+02  1.47196075534E+02  0.00000000000E+00  0.0000E+00  9.0
        3    1    4    4  504    0 -6.90469136845E+01  9.04573777220E-01 -5.27433511131E+01  8.68916315286E+01  0.00000000000E+00  0.0000E+00  9.0
       -4    1    4    4    0  504  2.75393613815E+01 -1.91224668423E+01 -1.20063002669E+01  3.56171508255E+01  5.87386917370E-01  0.0000E+00  9.0
</event>
<event>
 8    1   5.1859766E+00   2.8420000E+02  -1.0000000E+00   1.0020000E-01
       11   -1    0    0    0    0  0.00000000000E+00  0.00000000000E+00  2.49999988070E+02  2.49999988070E+02  0.00000000000E+00  0.0000E+00  9.0
      -11   -1    0    0    0    0  0.00000000000E+00  0.00000000000E+00 -8.07914148670E+01  8.07914148670E+01  0.00000000000E+00  0.0000E+00  9.0
       24    2    1    2    0    0  2.58300238883E+01 -6.87325222277E+00 -4.69380211940E+01  9.72868908121E+01  8.09143347009E+01  9.7109E-15  9.0
      -24    2    1    2    0    0 -2.58300238883E+01  6.87325222277E+00  2.16146594400E+02  2.33504512129E+02  8.42055531651E+01  5.8248E-14  9.0
       -3    1    3    3    0  500  2.93204866231E+01 -4.12053863221E+01 -2.52653892156E+01  5.65324215826E+01  0.00000000000E+00  0.0000E+00  9.0
        4    1    3    3  500    0 -3.49046273482E+00  3.43321340994E+01 -2.16726319784E+01  4.07544692296E+01  5.87386917370E-01  0.0000E+00  9.0
        1    1    4    4  504    0 -1.51657266195E+00 -2.46809250811E+01  1.73089407545E+02  1.74846764510E+02  0.00000000000E+00  0.0000E+00  9.0
       -2    1    4    4    0  504 -2.43134512264E+01  3.15541773039E+01  4.30571868554E+01  5.86577476192E+01  0.00000000000E+00  0.0000E+00  9.0
</event>
<event>
 8    1   5.1859766E+00   4.9680000E+02  -1.0000000E+00   9.3560000E-02
       11   -1    0    0    0    0  0.00000000000E+00  0.00000000000E+00  2.46909846180E+02  2.46909846180E+02  0.00000000000E+00  0.0000E+00  9.0
      -11   -1    0    0    0    0  0.00000000000E+00  0.00000000000E+00 -2.49948703310E+02  2.49948703310E+02  0.00000000000E+00  0.0000E+00  9.0
       24    2    1    2    0    0 -2.68679863069E+01 -4.49496704938E+01 -2.30411230123E+02  2.49518062558E+02  8.01721086803E+01  4.4007E-14  9.0
      -24    2    1    2    0    0  2.68679863069E+01  4.49496704938E+01  2.27372372993E+02  2.47340486931E+02  8.20777613563E+01  4.1819E-14  9.0
      -13    1    3    3    0    0 -5.22896244629E+01 -2.17626733975E+01 -1.03026871860E+02  1.17568559903E+02  1.05700000000E-01  0.0000E+00  9.0
       14    1    3    3    0    0  2.54216381560E+01 -2.31869970964E+01 -1.27384358263E+02  1.31949502656E+02  0.00000000000E+00  0.0000E+00  9.0
        1    1    4    4  500    0  3.20184196940E+01  7.57955391789E+00  2.45837080941E+01  4.10729538863E+01  0.00000000000E+00  0.0000E+00  9.0
       -2    1    4    4    0  500 -5.15043338706E+00  3.73701165759E+01  2.02788664899E+02  2.06267533045E+02  0.00000000000E+00  0.0000E+00  9.0
</event>
<event>
 8    1   5.1859766E+00   4.9800000E+02  -1.0000000E+00   9.3530000E-02
       11   -1    0    0    0    0  0.00000000000E+00  0.00000000000E+00  2.48019689130E+02  2.48019689130E+02  0.00000000000E+00  0.0000E+00  9.0
      -11   -1    0    0    0    0  0.00000000000E+00  0.00000000000E+00 -2.49999999950E+02  2.49999999950E+02  0.00000000000E+00  0.0000E+00  9.0
       24    2    1    2    0    0 -1.63894880964E+01 -9.52843976043E+01 -2.13928216920E+02  2.51726824854E+02  9.08481183607E+01  3.0735E-13  9.0
      -24    2    1    2    0    0  1.63894880964E+01  9.52843976043E+01  2.11947906110E+02  2.46292864227E+02  7.99407800686E+01  2.0804E-14  9.0
       -3    1    3    3    0  500  8.88106275221E+00  7.04210052146E+00 -8.24013591793E+01  8.31772111215E+01  0.00000000000E+00  0.0000E+00  9.0
        4    1    3    3  500    0 -2.52705508486E+01 -1.02326498126E+02 -1.31526857741E+02  1.68549613733E+02  5.87386917370E-01  0.0000E+00  9.0
        3    1    4    4  504    0 -2.88972739882E+01  6.42915555383E+01  1.23650301594E+02  1.42330086917E+02  0.00000000000E+00  0.0000E+00  9.0
       -4    1    4    4    0  504  4.52867620846E+01  3.09928420660E+01  8.82976045162E+01  1.03962777311E+02  5.87386917370E-01  0.0000E+00  9.0
</event>
<event>
 8    1   5.1859766E+00   4.8320000E+02  -1.0000000E+00   9.3870000E-02
       11   -1    0    0    0    0  0.00000000000E+00  0.00000000000E+00  2.49790848760E+02  2.49790848760E+02  0.00000000000E+00  0.0000E+00  9.0
      -11   -1    0    0    0    0  0.00000000000E+00  0.00000000000E+00 -2.33666428480E+02  2.33666428480E+02  0.00000000000E+00  0.0000E+00  9.0
       24    2    1    2    0    0  1.99858457347E+01  5.71964955995E+01 -2.11292239462E+02  2.34729585576E+02  8.23571171751E+01  1.1253E-13  9.0
      -24    2    1    2    0    0 -1.99858457347E+01 -5.71964955995E+01  2.27416659742E+02  2.48727691666E+02  8.04751783790E+01  1.2489E-13  9.0
       -3    1    3    3    0  500  2.60385053478E+01  6.90956614947E+01 -2.08348823598E+02  2.21046254193E+02  0.00000000000E+00  0.0000E+00  9.0
        4    1    3    3  500    0 -6.05265961310E+00 -1.18991658951E+01 -2.94341586326E+00  1.36833313826E+01  5.87386917370E-01  0.0000E+00  9.0
        3    1    4    4  504    0 -2.07182347004E+01 -7.47583736841E+01  2.10441206217E+02  2.24284553545E+02  0.00000000000E+00  0.0000E+00  9.0
       -4    1    4    4    0  504  7.32388965616E-01  1.75618780845E+01  1.69754535246E+01  2.44431381212E+01  5.87386917370E-01  0.0000E+00  9.0
</event>
<event>
 8    1   5.1859766E+00   4.9970000E+02  -1.0000000E+00   9.3500000E-02
       11   -1    0    0    0    0  0.00000000000E+00  0.00000000000E+00  2.49745788680E+02  2.49745788680E+02  0.00000000000E+00  0.0000E+00  9.0
      -11   -1    0    0    0    0  0.00000000000E+00  0.00000000000E+00 -2.49999916940E+02  2.49999916940E+02  0.00000000000E+00  0.0000E+00  9.0
       24    2    1    2    0    0 -7.33790595080E+00 -4.48144950945E+01 -2.32522249186E+02  2.50528396174E+02  8.14597881710E+01  8.7442E-14  9.0
      -24    2    1    2    0    0  7.33790595080E+00  4.48144950945E+01  2.32268120926E+02  2.49217309443E+02  7.80935560303E+01  6.0331E-14  9.0
       -3    1    3    3    0  500  2.06570268721E+01 -5.76974174493E+01 -1.35179801266E+02  1.48422651269E+02  0.00000000000E+00  0.0000E+00  9.0
        4    1    3    3  500    0 -2.79949328229E+01  1.28829223548E+01 -9.73424479202E+01  1.02105744905E+02  5.87386917370E-01  0.0000E+00  9.0
        1    1    4    4  504    0  2.69516225105E+00 -2.86329896638E+00 -5.45009106009E+00  6.72055601075E+00  0.00000000000E+00  0.0000E+00  9.0
       -2    1    4    4    0  504  4.64274369975E+00  4.76777940609E+01  2.37718211986E+02  2.42496753433E+02  0.00000000000E+00  0.0000E+00  9.0
</event>
<event>
 8    1   5.1859766E+00   4.8570000E+02  -1.0000000E+00   9.3810000E-02
       11   -1    0    0    0    0  0.00000000000E+00  0.00000000000E+00  2.42741460640E+02  2.42741460640E+02  0.00000000000E+00  0.0000E+00  9.0
      -11   -1    0    0    0    0  0.00000000000E+00  0.00000000000E+00 -2.42929267140E+02  2.42929267140E+02  0.00000000000E+00  0.0000E+00  9.0
       24    2    1    2    0    0 -6.24337535573E+01 -2.18516114031E+02 -2.83243340774E+01  2.42834781521E+02  8.07415477983E+01  7.9481E-14  9.0
      -24    2    1    2    0    0  6.24337535573E+01  2.18516114031E+02  2.81365275724E+01  2.42835946254E+02  8.08106857712E+01  6.1710E-14  9.0
       -1    1    3    3    0  500 -6.60327275280E+01 -1.52372190695E+02  9.89224817453E+00  1.66359436691E+02  0.00000000000E+00  0.0000E+00  9.0
        2    1    3    3  500    0  3.59897397063E+00 -6.61439233359E+01 -3.82165822520E+01  7.64753448303E+01  0.00000000000E+00  0.0000E+00  9.0
        3    1    4    4  504    0 -1.39622493324E+01  4.88134427344E+01 -1.26261967073E+01  5.23174678410E+01  0.00000000000E+00  0.0000E+00  9.0
       -4    1    4    4    0  504  7.63960028898E+01  1.69702671297E+02  4.07627242797E+01  1.90518478413E+02  5.87386917370E-01  0.0000E+00  9.0
</event>
<event>
 8    1   5.1859766E+00   4.8190000E+02  -1.0000000E+00   9.3900000E-02
       11   -1    0    0    0    0  0.00000000000E+00  0.00000000000E+00  2.50000000000E+02  2.50000000000E+02  0.00000000000E+00  0.0000E+00  9.0
      -11   -1    0    0    0    0  0.00000000000E+00  0.00000000000E+00 -2.32221733630E+02  2.32221733630E+02  0.00000000000E+00  0.0000E+00  9.0
       24    2    1    2    0    0 -1.68182816439E+00  2.27066418737E+01 -2.17616156713E+02  2.32587598183E+02  7.88782545114E+01  1.8210E-13  9.0
      -24    2    1    2    0    0  1.68182816439E+00 -2.27066418737E+01  2.35394423093E+02  2.49634135440E+02  7.99265101370E+01  3.2943E-14  9.0
       -3    1    3    3    0  500 -1.08873528590E+01 -2.24871146861E+01 -2.83770146142E+01  3.78081966985E+01  0.00000000000E+00  0.0000E+00  9.0
        4    1    3    3  500    0  9.20552469462E+00  4.51937565598E+01 -1.89239142099E+02  1.94779401484E+02  5.87386917370E-01  0.0000E+00  9.0
        1    1    4    4  504    0  1.16227251646E+01 -3.28482455604E+01  3.73436840616E+01  5.10749029949E+01  0.00000000000E+00  0.0000E+00  9.0
       -2    1    4    4    0  504 -9.94089700017E+00  1.01416036867E+01  1.98050739031E+02  1.98559232445E+02  0.00000000000E+00  0.0000E+00  9.0
</event>
<event>
 8    1   5.1859766E+00   4.5480000E+02  -1.0000000E+00   9.4550000E-02
       11   -1    0    0    0    0  0.00000000000E+00  0.00000000000E+00  2.49991809770E+02  2.49991809770E+02  0.00000000000E+00  0.0000E+00  9.0
      -11   -1    0    0    0    0  0.00000000000E+00  0.00000000000E+00 -2.06876120940E+02  2.06876120940E+02  0.00000000000E+00  0.0000E+00  9.0
       24    2    1    2    0    0 -1.64938155705E+01 -6.89628279502E+00 -1.91294717338E+02  2.08569871200E+02  8.11672201227E+01  1.2293E-13  9.0
      -24    2    1    2    0    0  1.64938155705E+01  6.89628279502E+00  2.34410406168E+02  2.48298059504E+02  7.99004578538E+01  3.9127E-13  9.0
      -13    1    3    3    0    0  2.35149877970E+00 -1.33131244052E+00 -1.88734624632E+02  1.88753997697E+02  1.05700000000E-01  0.0000E+00  9.0
       14    1    3    3    0    0 -1.88453143502E+01 -5.56497035450E+00 -2.56009270616E+00  1.98158735025E+01  0.00000000000E+00  0.0000E+00  9.0
       13    1    4    4    0    0 -8.31583003372E+00  3.52997470426E+01  6.21468336275E+01  7.19546056402E+01  1.05700000000E-01  0.0000E+00  9.0
      -14    1    4    4    0    0  2.48096456042E+01 -2.84034642476E+01  1.72263572541E+02  1.76343453864E+02  0.00000000000E+00  0.0000E+00  9.0
</event>
<event>
 8    1   5.1859766E+00   4.9090000E+02  -1.0000000E+00   9.3690000E-02
       11   -1    0    0    0    0  0.00000000000E+00  0.00000000000E+00  2.47975658840E+02  2.47975658840E+02  0.00000000000E+00  0.0000E+00  9.0
      -11   -1    0    0    0    0  0.00000000000E+00  0.00000000000E+00 -2.42949914350E+02  2.42949914350E+02  0.00000000000E+00  0.0000E+00  9.0
       24    2    1    2    0    0  3.91278601890E+01  5.58773103445E+00 -2.25876332182E+02  2.42973987295E+02  8.03369708226E+01  5.5935E-14  9.0
      -24    2    1    2    0    0 -3.91278601890E+01 -5.58773103445E+00  2.30902076672E+02  2.47951585889E+02  8.12527399677E+01  1.0532E-13  9.0
       -1    1    3    3    0  500  1.21702562240E+01 -3.05634677837E+01 -4.04290910031E+01  5.21224721100E+01  0.00000000000E+00  0.0000E+00  9.0
        2    1    3    3  500    0  2.69576039650E+01  3.61511988182E+01 -1.85447241179E+02  1.90851515185E+02  0.00000000000E+00  0.0000E+00  9.0
        1    1    4    4  504    0 -2.14091856983E+01  2.18454765475E+01  2.50803471868E+01  3.95550488921E+01  0.00000000000E+00  0.0000E+00  9.0
       -2    1    4    4    0  504 -1.77186744908E+01 -2.74332075819E+01  2.05821729485E+02  2.08396536997E+02  0.00000000000E+00  0.0000E+00  9.0
</event>
<event>
 8    1   5.1859766E+00   5.0000000E+02  -1.0000000E+00   9.3490000E-02
       11   -1    0    0    0    0  0.00000000000E+00  0.00000000000E+00  2.50000000000E+02  2.50000000000E+02  0.00000000000E+00  0.0000E+00  9.0
      -11   -1    0    0    0    0  0.00000000000E+00  0.00000000000E+00 -2.49999997180E+02  2.49999997180E+02  0.00000000000E+00  0.0000E+00  9.0
       24    2    1    2    0    0 -3.12295538593E+01 -1.08410432519E+01 -2.34631067149E+02  2.49917998480E+02  7.94635453525E+01  7.7249E-14  9.0
      -24    2    1    2    0    0  3.12295538593E+01  1.08410432519E+01  2.34631069979E+02  2.50081998696E+02  7.99778333001E+01  2.0280E-14  9.0
       -1    1    3    3    0  500 -4.08346416074E+01 -3.89014980507E+01 -1.52129865432E+02  1.62247620821E+02  0.00000000000E+00  0.0000E+00  9.0
        2    1    3    3  500    0  9.60508774809E+00  2.80604547989E+01 -8.25012017168E+01  8.76703776591E+01  0.00000000000E+00  0.0000E+00  9.0
        3    1    4    4  504    0  3.14920660911E+01  2.19309230479E+01  4.10948463714E+01  5.62272354888E+01  0.00000000000E+00  0.0000E+00  9.0
       -4    1    4    4    0  504 -2.62512231744E-01 -1.10898797960E+01  1.93536223607E+02  1.93854763207E+02  5.87386917370E-01  0.0000E+00  9.0
</event>
<event>
 8    1   5.1859766E+00   3.7390000E+02  -1.0000000E+00   9.6820000E-02
       11   -1    0    0    0    0  0.00000000000E+00  0.00000000000E+00  1.41540120860E+02  1.41540120860E+02  0.00000000000E+00  0.0000E+00  9.0
      -11   -1    0    0    0    0  0.00000000000E+00  0.00000000000E+00 -2.46954546280E+02  2.46954546280E+02  0.00000000000E+00  0.0000E+00  9.0
       24    2    1    2    0    0  4.23902405701E+01 -7.57223871780E+01 -2.03693867651E+02  2.35166874553E+02  7.92556291551E+01  1.4940E-14  9.0
      -24    2    1    2    0    0 -4.23902405701E+01  7.57223871780E+01  9.82794422268E+01  1.53327792586E+02  7.94968603117E+01  2.7645E-14  9.0
       -1    1    3    3    0  500  1.58744186506E+01  7.68420745924E+00 -5.44336656901E+00  1.84573684846E+01  0.00000000000E+00  0.0000E+00  9.0
        2    1    3    3  500    0  2.65158219195E+01 -8.34065946373E+01 -1.98250501082E+02  2.16709506068E+02  0.00000000000E+00  0.0000E+00  9.0
       13    1    4    4    0    0 -5.70314525057E+01  7.33990353845E+01  5.59827513279E+01  1.08508453998E+02  1.05700000000E-01  0.0000E+00  9.0
      -14    1    4    4    0    0  1.46412119356E+01  2.32335179357E+00  4.22966908989E+01  4.48193385883E+01  0.00000000000E+00  0.0000E+00  9.0
</event>
<event>
 8    1   5.1859766E+00   3.2400000E+02  -1.0000000E+00   9.8550000E-02
       11   -1    0    0    0    0  0.00000000000E+00  0.00000000000E+00  1.27478580900E+02  1.27478580900E+02  0.00000000000E+00  0.0000E+00  9.0
      -11   -1    0    0    0    0  0.00000000000E+00  0.00000000000E+00 -2.05917458040E+02  2.05917458040E+02  0.00000000000E+00  0.0000E+00  9.0
       24    2    1    2    0    0 -6.66845997025E+01  6.87424434316E+01 -1.46289661467E+02  1.92592525565E+02  8.07394357497E+01  1.0199E-13  9.0
      -24    2    1    2    0    0  6.66845997025E+01 -6.87424434316E+01  6.78507843248E+01  1.40803513374E+02  7.77787958157E+01  4.2375E-15  9.0
       -3    1    3    3    0  500 -7.89421484737E+01  3.32804080618E+01 -8.47039499265E+01  1.20474924775E+02  0.00000000000E+00  0.0000E+00  9.0
        4    1    3    3  500    0  1.22575487712E+01  3.54620353697E+01 -6.15857115403E+01  7.21176007904E+01  5.87386917370E-01  0.0000E+00  9.0
        3    1    4    4  504    0  7.49836233870E+01 -2.89173015683E+01  5.75135201177E+01  9.88259029939E+01  0.00000000000E+00  0.0000E+00  9.0
       -4    1    4    4    0  504 -8.29902368448E+00 -3.98251418632E+01  1.03372642071E+01  4.19776103801E+01  5.87386917370E-01  0.0000E+00  9.0
</event>
<event>
 8    1   5.1859766E+00   4.9880000E+02  -1.0000000E+00   9.3520000E-02
       11   -1    0    0    0    0  0.00000000000E+00  0.00000000000E+00  2.49687230180E+02  2.49687230180E+02  0.00000000000E+00  0.0000E+00  9.0
      -11   -1    0    0    0    0  0.00000000000E+00  0.00000000000E+00 -2.49096948880E+02  2.49096948880E+02  0.00000000000E+00  0.0000E+00  9.0
       24    2    1    2    0    0  1.03307117256E+01 -1.05093117422E+00 -2.35449259159E+02  2.48864400577E+02  7.99331481603E+01  1.9519E-14  9.0
      -24    2    1    2    0    0 -1.03307117256E+01  1.05093117422E+00  2.36039540459E+02  2.49919778480E+02  8.14702580950E+01  1.2296E-13  9.0
       -3    1    3    3    0  500 -6.74284285106E+00  4.17035674842E+00 -2.30072459069E+02  2.30209022906E+02  0.00000000000E+00  0.0000E+00  9.0
        4    1    3    3  500    0  1.70735545767E+01 -5.22128792264E+00 -5.37680009005E+00  1.86553776711E+01  5.87386917370E-01  0.0000E+00  9.0
        3    1    4    4  504    0 -4.45790932074E+01  1.15736392517E+01  1.23214321374E+02  1.31540920129E+02  0.00000000000E+00  0.0000E+00  9.0
       -4    1    4    4    0  504  3.42483814818E+01 -1.05227080775E+01  1.12825219085E+02  1.18378858351E+02  5.87386917370E-01  0.0000E+00  9.0
</event>
<event>
 8    1   5.1859766E+00   2.2200000E+02  -1.0000000E+00   1.0340000E-01
       11   -1    0    0    0    0  0.00000000000E+00  0.00000000000E+00  4.95884593780E+01  4.95884593780E+01  0.00000000000E+00  0.0000E+00  9.0
      -11   -1    0    0    0    0  0.00000000000E+00  0.00000000000E+00 -2.48558702650E+02  2.48558702650E+02  0.00000000000E+00  0.0000E+00  9.0
       24    2    1    2    0    0  3.17274853692E+01 -1.17626253728E+00 -1.92687932655E+02  2.11047781773E+02  8.00281817810E+01  3.8541E-14  9.0
      -24    2    1    2    0    0 -3.17274853692E+01  1.17626253728E+00 -6.28231061804E+00  8.70993802557E+01  8.08629562459E+01  1.4165E-14  9.0
       -3    1    3    3    0  500  3.77308874313E+01 -2.16262648188E+01 -4.78949979569E+01  6.46934774584E+01  0.00000000000E+00  0.0000E+00  9.0
        4    1    3    3  500    0 -6.00340206207E+00  2.04500022815E+01 -1.44792934698E+02  1.46354304315E+02  5.87386917370E-01  0.0000E+00  9.0
        1    1    4    4  504    0 -4.85805687351E+01  2.57194727371E+01  5.14559643729E+00  5.52090581263E+01  0.00000000000E+00  0.0000E+00  9.0
       -2    1    4    4    0  504  1.68530833659E+01 -2.45432101999E+01 -1.14279070553E+01  3.18903221294E+01  0.00000000000E+00  0.0000E+00  9.0
</event>
<event>
 8    1   5.1859766E+00   4.9550000E+02  -1.0000000E+00   9.3590000E-02
       11   -1    0    0    0    0  0.00000000000E+00  0.00000000000E+00  2.47123639510E+02  2.47123639510E+02  0.00000000000E+00  0.0000E+00  9.0
      -11   -1    0    0    0    0  0.00000000000E+00  0.00000000000E+00 -2.48392533750E+02  2.48392533750E+02  0.00000000000E+00  0.0000E+00  9.0
       24    2    1    2    0    0 -1.45092913428E+01  5.34690586287E-02 -2.34598926426E+02  2.48319591912E+02  8.00964484434E+01  6.6929E-14  9.0
      -24    2    1    2    0    0  1.45092913428E+01 -5.34690586287E-02  2.33330032196E+02  2.47196581349E+02  8.03288460751E+01  3.6841E-13  9.0
       -1    1    3    3    0  500  3.05062947515E+01  1.49341379610E+01 -9.50152683284E+01  1.00903734874E+02  0.00000000000E+00  0.0000E+00  9.0
        2    1    3    3  500    0 -4.50155860943E+01 -1.48806689024E+01 -1.39583658097E+02  1.47415857038E+02  0.00000000000E+00  0.0000E+00  9.0
        1    1    4    4  504    0  5.87833848449E+00 -3.80674901165E+01  1.54846064455E+02  1.59565009774E+02  0.00000000000E+00  0.0000E+00  9.0
       -2    1    4    4    0  504  8.63095285835E+00  3.80140210579E+01  7.84839677409E+01  8.76315715743E+01  0.00000000000E+00  0.0000E+00  9.0
</event>
<event>
 8    1   5.1859766E+00   4.9140000E+02  -1.0000000E+00   9.3680000E-02
       11   -1    0    0    0    0  0.00000000000E+00  0.00000000000E+00  2.42993480400E+02  2.42993480400E+02  0.00000000000E+00  0.0000E+00  9.0
      -11   -1    0    0    0    0  0.00000000000E+00  0.00000000000E+00 -2.48426668870E+02  2.48426668870E+02  0.00000000000E+00  0.0000E+00  9.0
       24    2    1    2    0    0  3.20331747779E+01 -5.76308880886E+00 -2.35939070838E+02  2.51524014966E+02  8.08563385128E+01  2.9877E-15  9.0
      -24    2    1    2    0    0 -3.20331747779E+01  5.76308880886E+00  2.30505882368E+02  2.39896134317E+02  5.79470100585E+01  1.8135E-14  9.0
       -3    1    3    3    0  500  4.80101427067E+01  3.52503586806E+00 -7.24025651278E+01  8.69455641058E+01  0.00000000000E+00  0.0000E+00  9.0
        4    1    3    3  500    0 -1.59769679288E+01 -9.28812467692E+00 -1.63536505711E+02  1.64578450860E+02  5.87386917370E-01  0.0000E+00  9.0
        3    1    4    4  504    0 -9.78792603760E+00 -2.47799380673E+01  6.75169395419E+01  7.25836479646E+01  0.00000000000E+00  0.0000E+00  9.0
       -4    1    4    4    0  504 -2.22452487403E+01  3.05430268761E+01  1.62988942826E+02  1.67312486352E+02  5.87386917370E-01  0.0000E+00  9.0
</event>
<event>
 8    1   5.1859766E+00   4.9980000E+02  -1.0000000E+00   9.3490000E-02
       11   -1    0    0    0    0  0.00000000000E+00  0.00000000000E+00  2.49891707050E+02  2.49891707050E+02  0.00000000000E+00  0.0000E+00  9.0
      -11   -1    0    0    0    0  0.00000000000E+00  0.00000000000E+00 -2.49950874770E+02  2.49950874770E+02  0.00000000000E+00  0.0000E+00  9.0
       24    2    1    2    0    0 -2.02838053535E+01  3.22096397361E+01 -2.33507971144E+02  2.50149305068E+02  8.12392059702E+01  1.1036E-13  9.0
      -24    2    1    2    0    0  2.02838053535E+01 -3.22096397361E+01  2.33448803424E+02  2.49693276744E+02  7.99968435575E+01  1.2656E-13  9.0
       -3    1    3    3    0  500 -4.62170592769E+01  9.12191296790E+00 -8.06867192627E+01  9.34321814461E+01  0.00000000000E+00  0.0000E+00  9.0
        4    1    3    3  500    0  2.59332539233E+01  2.30877267682E+01 -1.52821251882E+02  1.56717123622E+02  5.87386917370E-01  0.0000E+00  9.0
        1    1    4    4  504    0  1.04190229861E+01 -4.13111390206E+00 -2.82001562236E+00  1.15574491202E+01  0.00000000000E+00  0.0000E+00  9.0
       -2    1    4    4    0  504  9.86478236748E+00 -2.80785258340E+01  2.36268819047E+02  2.38135827623E+02  0.00000000000E+00  0.0000E+00  9.0
</event>
<event>
 8    1   5.1859766E+00   3.9790000E+02  -1.0000000E+00   9.6090000E-02
       11   -1    0    0    0    0  0.00000000000E+00  0.00000000000E+00  2.49999914870E+02  2.49999914870E+02  0.00000000000E+00  0.0000E+00  9.0
      -11   -1    0    0    0    0  0.00000000000E+00  0.00000000000E+00 -1.58350499360E+02  1.58350499360E+02  0.00000000000E+00  0.0000E+00  9.0
       24    2    1    2    0    0  4.20795854713E+01 -1.23294256549E+02  1.76045461965E+02  2.33174989307E+02  8.00400259143E+01  1.3283E-13  9.0
      -24    2    1    2    0    0 -4.20795854713E+01  1.23294256549E+02 -8.43960464613E+01  1.75175424933E+02  8.11884944482E+01  1.2268E-13  9.0
      -13    1    3    3    0    0  1.28694901248E+00  1.07738561202E+01  4.71080278595E+00  1.18294145602E+01  1.05700000000E-01  0.0000E+00  9.0
       14    1    3    3    0    0  4.07926364588E+01 -1.34068112669E+02  1.71334659179E+02  2.21345574747E+02  0.00000000000E+00  0.0000E+00  9.0
        1    1    4    4  500    0  2.39612388955E+01  2.84349420415E+01 -2.81160583464E+01  4.66175893333E+01  0.00000000000E+00  0.0000E+00  9.0
       -2    1    4    4    0  500 -6.60408243668E+01  9.48593145072E+01 -5.62799881149E+01  1.28557835600E+02  0.00000000000E+00  0.0000E+00  9.0
</event>
<event>
 8    1   5.1859766E+00   2.9720000E+02  -1.0000000E+00   9.9630000E-02
       11   -1    0    0    0    0  0.00000000000E+00  0.00000000000E+00  9.55037468470E+01  9.55037468470E+01  0.00000000000E+00  0.0000E+00  9.0
      -11   -1    0    0    0    0  0.00000000000E+00  0.00000000000E+00 -2.31158083080E+02  2.31158083080E+02  0.00000000000E+00  0.0000E+00  9.0
       24    2    1    2    0    0  4.90318991857E+01 -3.18429331197E+01 -1.86964676061E+02  2.12232869619E+02  8.16633413758E+01  6.6680E-14  9.0
      -24    2    1    2    0    0 -4.90318991857E+01  3.18429331197E+01  5.13103398318E+01  1.14428960305E+02  8.39233963525E+01  9.2959E-14  9.0
       -3    1    3    3    0  500  1.27697628228E+01 -5.13802982393E+01 -1.40459274687E+02  1.50105995001E+02  0.00000000000E+00  0.0000E+00  9.0
        4    1    3    3  500    0  3.62621363629E+01  1.95373651196E+01 -4.65054013739E+01  6.21268746176E+01  5.87386917370E-01  0.0000E+00  9.0
        3    1    4    4  504    0 -2.82205592413E+01 -2.97867103419E+00 -1.83655427497E+01  3.38018580187E+01  0.00000000000E+00  0.0000E+00  9.0
       -4    1    4    4    0  504 -2.08113399443E+01  3.48216041539E+01  6.96758825815E+01  8.06271022860E+01  5.87386917370E-01  0.0000E+00  9.0
</event>
<event>
 8    1   5.1859766E+00   4.8860000E+02  -1.0000000E+00   9.3750000E-02
       11   -1    0    0    0    0  0.00000000000E+00  0.00000000000E+00  2.39447909800E+02  2.39447909800E+02  0.00000000000E+00  0.0000E+00  9.0
      -11   -1    0    0    0    0  0.00000000000E+00  0.00000000000E+00 -2.49253716590E+02  2.49253716590E+02  0.00000000000E+00  0.0000E+00  9.0
       24    2    1    2    0    0  3.75842468686E+01  4.87883797375E+01 -2.27675628858E+02  2.48520476202E+02  7.83157296198E+01  5.0934E-14  9.0
      -24    2    1    2    0    0 -3.75842468686E+01 -4.87883797375E+01  2.17869822068E+02  2.40181150194E+02  8.01675990058E+01  8.9941E-14  9.0
       -3    1    3    3    0  500 -1.03326176638E+01  4.29914793117E+01 -6.33676253475E+01  7.72689214586E+01  0.00000000000E+00  0.0000E+00  9.0
        4    1    3    3  500    0  4.79168645324E+01  5.79690042580E+00 -1.64308003511E+02  1.71251554744E+02  5.87386917370E-01  0.0000E+00  9.0
        3    1    4    4  504    0 -3.26647348390E+00  1.34003563838E+01  3.33119517374E+00  1.41893009524E+01  0.00000000000E+00  0.0000E+00  9.0
       -4    1    4    4    0  504 -3.43177733847E+01 -6.21887361213E+01  2.14538626894E+02  2.25991849241E+02  5.87386917370E-01  0.0000E+00  9.0
</event>
<event>
 8    1   5.1859766E+00   5.0000000E+02  -1.0000000E+00   9.3490000E-02
       11   -1    0    0    0    0  0.00000000000E+00  0.00000000000E+00  2.49996863780E+02  2.49996863780E+02  0.00000000000E+00  0.0000E+00  9.0
      -11   -1    0    0    0    0  0.00000000000E+00  0.00000000000E+00 -2.49973240570E+02  2.49973240570E+02  0.00000000000E+00  0.0000E+00  9.0
       24    2    1    2    0    0  1.41653343436E+02  1.85471421440E+02  3.41746051009E+01  2.48787042508E+02  7.91313528793E+01  8.2896E-14  9.0
      -24    2    1    2    0    0 -1.41653343436E+02 -1.85471421440E+02 -3.41509818949E+01  2.51183061853E+02  8.63789506747E+01  1.8477E-14  9.0
       -3    1    3    3    0  500  3.64538937443E+01  9.03291319300E+01 -1.52210631391E+01  9.85896506102E+01  0.00000000000E+00  0.0000E+00  9.0
        4    1    3    3  500    0  1.05199449692E+02  9.51422895101E+01  4.93956682400E+01  1.50197391898E+02  5.87386917370E-01  0.0000E+00  9.0
        3    1    4    4  504    0 -2.65449831813E+01 -2.71129301912E+01  2.64390795039E+01  4.62468597924E+01  0.00000000000E+00  0.0000E+00  9.0
       -4    1    4    4    0  504 -1.15108360255E+02 -1.58358491249E+02 -6.05900613987E+01  2.04936202060E+02  5.87386917370E-01  0.0000E+00  9.0
</event>
<event>
 8    1   5.1859766E+00   4.8710000E+02  -1.0000000E+00   9.3780000E-02
       11   -1    0    0    0    0  0.00000000000E+00  0.00000000000E+00  2.49999993090E+02  2.49999993090E+02  0.00000000000E+00  0.0000E+00  9.0
      -11   -1    0    0    0    0  0.00000000000E+00  0.00000000000E+00 -2.37270466400E+02  2.37270466400E+02  0.00000000000E+00  0.0000E+00  9.0
       24    2    1    2    0    0  2.01877195883E+01  1.99685716355E+01 -2.22341932393E+02  2.37894706144E+02  7.96973552617E+01  6.7176E-14  9.0
      -24    2    1    2    0    0 -2.01877195883E+01 -1.99685716355E+01  2.35071459083E+02  2.49375753347E+02  7.82520773311E+01  7.0719E-14  9.0
      -13    1    3    3    0    0  2.49443951323E+01  1.55513269771E+01 -2.02420318544E+01  3.56905820259E+01  1.05700000000E-01  0.0000E+00  9.0
       14    1    3    3    0    0 -4.75667554394E+00  4.41724465832E+00 -2.02099900539E+02  2.02204124118E+02  0.00000000000E+00  0.0000E+00  9.0
        1    1    4    4  500    0  3.00177676879E+01 -6.10811917676E+00  7.38913806985E+01  7.99894470438E+01  0.00000000000E+00  0.0000E+00  9.0
       -2    1    4    4    0  500 -5.02054872763E+01 -1.38604524587E+01  1.61180078385E+02  1.69386306303E+02  0.00000000000E+00  0.0000E+00  9.0
</event>
<event>
 8    1   5.1859766E+00   4.6660000E+02  -1.0000000E+00   9.4260000E-02
       11   -1    0    0    0    0  0.00000000000E+00  0.00000000000E+00  2.49925562370E+02  2.49925562370E+02  0.00000000000E+00  0.0000E+00  9.0
      -11   -1    0    0    0    0  0.00000000000E+00  0.00000000000E+00 -2.17824156120E+02  2.17824156120E+02  0.00000000000E+00  0.0000E+00  9.0
       24    2    1    2    0    0 -6.99043744364E+01 -5.66022547833E+01 -1.92497214923E+02  2.13031674856E+02  1.53909040356E+01  2.0018E-13  9.0
      -24    2    1    2    0    0  6.99043744364E+01  5.66022547833E+01  2.24598621173E+02  2.54718043641E+02  7.96636950648E+01  3.4226E-15  9.0
       -1    1    3    3    0  500 -2.87464077916E+01 -2.15705973967E+01 -9.47472602374E+01  1.01334544729E+02  0.00000000000E+00  0.0000E+00  9.0
        2    1    3    3  500    0 -4.11579666448E+01 -3.50316573866E+01 -9.77499546859E+01  1.11697130127E+02  0.00000000000E+00  0.0000E+00  9.0
        1    1    4    4  504    0 -9.46744073686E+00  2.52145503660E+01  2.16651024598E+01  3.45656281421E+01  0.00000000000E+00  0.0000E+00  9.0
       -2    1    4    4    0  504  7.93718151732E+01  3.13877044173E+01  2.02933518713E+02  2.20152415499E+02  0.00000000000E+00  0.0000E+00  9.0
</event>
<event>
 8    1   5.1859766E+00   4.6640000E+02  -1.0000000E+00   9.4270000E-02
       11   -1    0    0    0    0  0.00000000000E+00  0.00000000000E+00  2.29218768060E+02  2.29218768060E+02  0.00000000000E+00  0.0000E+00  9.0
      -11   -1    0    0    0    0  0.00000000000E+00  0.00000000000E+00 -2.37252983120E+02  2.37252983120E+02  0.00000000000E+00  0.0000E+00  9.0
       24    2    1    2    0    0 -7.40017812433E+01 -1.28224564481E+02 -1.64878662627E+02  2.35893176120E+02  8.08876664679E+01  1.9247E-13  9.0
      -24    2    1    2    0    0  7.40017812433E+01  1.28224564481E+02  1.56844447567E+02  2.30578575058E+02  8.15383098875E+01  1.0642E-13  9.0
       -3    1    3    3    0  500 -4.46320058901E+01 -5.10126807710E+01 -1.29212665975E+02  1.45911694520E+02  0.00000000000E+00  0.0000E+00  9.0
        4    1    3    3  500    0 -2.93697753533E+01 -7.72118837102E+01 -3.56659966520E+01  8.99814816001E+01  5.87386917370E-01  0.0000E+00  9.0
        1    1    4    4  504    0  1.00035025343E+01  9.62053626880E+01  7.94598935622E+01  1.25177540149E+02  0.00000000000E+00  0.0000E+00  9.0
       -2    1    4    4    0  504  6.39982787091E+01  3.20192017932E+01  7.73845540051E+01  1.05401034908E+02  0.00000000000E+00  0.0000E+00  9.0
</event>
<event>
 8    1   5.1859766E+00   4.9950000E+02  -1.0000000E+00   9.3500000E-02
       11   -1    0    0    0    0  0.00000000000E+00  0.00000000000E+00  2.50000000000E+02  2.50000000000E+02  0.00000000000E+00  0.0000E+00  9.0
      -11   -1    0    0    0    0  0.00000000000E+00  0.00000000000E+00 -2.49518079200E+02  2.49518079200E+02  0.00000000000E+00  0.0000E+00  9.0
       24    2    1    2    0    0  1.39808306956E+02  9.72986779597E+01 -1.64277788105E+02  2.49325835940E+02  7.85034099628E+01  2.8124E-14  9.0
      -24    2    1    2    0    0 -1.39808306956E+02 -9.72986779597E+01  1.64759708905E+02  2.50192243269E+02  8.02309260011E+01  1.3367E-13  9.0
       -3    1    3    3    0  500  5.20705201683E+01  4.84896900128E+01 -2.06562057450E+01  7.40895940325E+01  0.00000000000E+00  0.0000E+00  9.0
        4    1    3    3  500    0  8.77377867881E+01  4.88089879469E+01 -1.43621582360E+02  1.75236241907E+02  5.87386917370E-01  0.0000E+00  9.0
        1    1    4    4  504    0 -3.08628174346E+01 -4.99272410140E-01  6.96033620734E+01  7.61405987950E+01  0.00000000000E+00  0.0000E+00  9.0
       -2    1    4    4    0  504 -1.08945489522E+02 -9.67994055495E+01  9.51563468312E+01  1.74051644474E+02  0.00000000000E+00  0.0000E+00  9.0
</event>
<event>
 8    1   5.1859766E+00   4.9790000E+02  -1.0000000E+00   9.3540000E-02
       11   -1    0    0    0    0  0.00000000000E+00  0.00000000000E+00  2.49762492840E+02  2.49762492840E+02  0.00000000000E+00  0.0000E+00  9.0
      -11   -1    0    0    0    0  0.00000000000E+00  0.00000000000E+00 -2.48187157550E+02  2.48187157550E+02  0.00000000000E+00  0.0000E+00  9.0
       24    2    1    2    0    0  5.56126946612E+00  1.71786834489E+01 -2.35077630723E+02  2.48740010575E+02  7.92720979399E+01  1.3818E-13  9.0
      -24    2    1    2    0    0 -5.56126946612E+00 -1.71786834489E+01  2.36652966013E+02  2.49209639816E+02  7.59919954427E+01  1.4741E-13  9.0
      -13    1    3    3    0    0 -1.74981015901E+01  1.10560707790E+01 -1.10842797193E+01  2.34796228614E+01  1.05700000000E-01  0.0000E+00  9.0
       14    1    3    3    0    0  2.30593710562E+01  6.12261266989E+00 -2.23993351003E+02  2.25260387714E+02  0.00000000000E+00  0.0000E+00  9.0
        1    1    4    4  500    0  1.86010600220E+01  3.81468690038E+00  1.98508834752E+02  1.99414916053E+02  0.00000000000E+00  0.0000E+00  9.0
       -2    1    4    4    0  500 -2.41623294881E+01 -2.09933703493E+01  3.81441312610E+01  4.97947237623E+01  0.00000000000E+00  0.0000E+00  9.0
</event>
<event>
 8    1   5.1859766E+00   5.0000000E+02  -1.0000000E+00   9.3490000E-02
       11   -1    0    0    0    0  0.00000000000E+00  0.00000000000E+00  2.49999989550E+02  2.49999989550E+02  0.00000000000E+00  0.0000E+00  9.0
      -11   -1    0    0    0    0  0.00000000000E+00  0.00000000000E+00 -2.49967587310E+02  2.49967587310E+02  0.00000000000E+00  0.0000E+00  9.0
       24    2    1    2    0    0  1.07094143269E+02  1.51736258496E+02 -1.46233554586E+02  2.50385771376E+02  8.25574609354E+01  4.6170E-14  9.0
      -24    2    1    2    0    0 -1.07094143269E+02 -1.51736258496E+02  1.46265956826E+02  2.49581805484E+02  8.00268694739E+01  1.4258E-13  9.0
       -1    1    3    3    0  500  4.97324498355E+01  5.85478386845E+01 -1.28956770893E+01  7.78939308859E+01  0.00000000000E+00  0.0000E+00  9.0
        2    1    3    3  500    0  5.73616934333E+01  9.31884198110E+01 -1.33337877497E+02  1.72491840490E+02  0.00000000000E+00  0.0000E+00  9.0
        1    1    4    4  504    0 -1.27839470447E+01 -2.45358333226E+00  4.32155048906E+01  4.51334602723E+01  0.00000000000E+00  0.0000E+00  9.0
       -2    1    4    4    0  504 -9.43101962241E+01 -1.49282675163E+02  1.03050451935E+02  2.04448345212E+02  0.00000000000E+00  0.0000E+00  9.0
</event>
<event>
 8    1   5.1859766E+00   4.7930000E+02  -1.0000000E+00   9.3960000E-02
       11   -1    0    0    0    0  0.00000000000E+00  0.00000000000E+00  2.49999952020E+02  2.49999952020E+02  0.00000000000E+00  0.0000E+00  9.0
      -11   -1    0    0    0    0  0.00000000000E+00  0.00000000000E+00 -2.29750940980E+02  2.29750940980E+02  0.00000000000E+00  0.0000E+00  9.0
       24    2    1    2    0    0 -1.53707846602E+01  2.81134127521E+01 -2.13734625904E+02  2.30100367154E+02  7.89750825028E+01  1.3923E-13  9.0
      -24    2    1    2    0    0  1.53707846602E+01 -2.81134127521E+01  2.33983636944E+02  2.49650525852E+02  8.09346508169E+01  4.7674E-14  9.0
       -3    1    3    3    0  500  2.14968390669E+01  7.14403972861E+00 -1.60220125026E+02  1.61813596020E+02  0.00000000000E+00  0.0000E+00  9.0
        4    1    3    3  500    0 -3.68676237271E+01  2.09693730235E+01 -5.35145008778E+01  6.82867711337E+01  5.87386917370E-01  0.0000E+00  9.0
       13    1    4    4    0    0 -2.72784554265E+01 -2.99844487085E+01  1.50783657114E+02  1.56137451368E+02  1.05700000000E-01  0.0000E+00  9.0
      -14    1    4    4    0    0  4.26492400867E+01  1.87103595635E+00  8.31999798305E+01  9.35130744833E+01  0.00000000000E+00  0.0000E+00  9.0
</event>
<event>
 8    1   5.1859766E+00   5.0000000E+02  -1.0000000E+00   9.3490000E-02
       11   -1    0    0    0    0  0.00000000000E+00  0.00000000000E+00  2.49980593090E+02  2.49980593090E+02  0.00000000000E+00  0.0000E+00  9.0
      -11   -1    0    0    0    0  0.00000000000E+00  0.00000000000E+00 -2.49999999930E+02  2.49999999930E+02  0.00000000000E+00  0.0000E+00  9.0
       24    2    1    2    0    0 -1.49860353345E+01 -6.71909997773E+01 -2.27071299209E+02  2.50837510721E+02  8.13564389216E+01  1.8630E-13  9.0
      -24    2    1    2    0    0  1.49860353345E+01  6.71909997773E+01  2.27051892369E+02  2.49143082297E+02  7.60296121405E+01  2.6917E-14  9.0
       -1    1    3    3    0  500 -5.53138873908E-01 -1.41759856119E+01  2.82610348383E+00  1.44655242416E+01  0.00000000000E+00  0.0000E+00  9.0
        2    1    3    3  500    0 -1.44328964606E+01 -5.30150141654E+01 -2.29897402693E+02  2.36371986479E+02  0.00000000000E+00  0.0000E+00  9.0
        3    1    4    4  504    0  3.75752773148E+01  6.35457908979E+01  2.02689337987E+02  2.15714943247E+02  0.00000000000E+00  0.0000E+00  9.0
       -4    1    4    4    0  504 -2.25892419802E+01  3.64520887939E+00  2.43625543815E+01  3.34281390508E+01  5.87386917370E-01  0.0000E+00  9.0
</event>
<event>
 8    1   5.1859766E+00   4.9030000E+02  -1.0000000E+00   9.3710000E-02
       11   -1    0    0    0    0  0.00000000000E+00  0.00000000000E+00  2.44462353600E+02  2.44462353600E+02  0.00000000000E+00  0.0000E+00  9.0
      -11   -1    0    0    0    0  0.00000000000E+00  0.00000000000E+00 -2.45867104670E+02  2.45867104670E+02  0.00000000000E+00  0.0000E+00  9.0
       24    2    1    2    0    0  2.08501987605E+01 -3.11733803111E+01 -2.29237441648E+02  2.45830005398E+02  8.04740732934E+01  9.6916E-14  9.0
      -24    2    1    2    0    0 -2.08501987605E+01  3.11733803111E+01  2.27832690588E+02  2.44499452877E+02  8.04098074136E+01  1.0886E-13  9.0
       -3    1    3    3    0  500  3.83751744263E+01 -3.96427822325E+01 -2.14297017627E+02  2.21285824127E+02  0.00000000000E+00  0.0000E+00  9.0
        4    1    3    3  500    0 -1.75249756658E+01  8.46940192141E+00 -1.49404240207E+01  2.45441812718E+01  5.87386917370E-01  0.0000E+00  9.0
       13    1    4    4    0    0 -2.86702578226E+01 -1.31281774363E+01  1.60184231577E+02  1.63258481999E+02  1.05700000000E-01  0.0000E+00  9.0
      -14    1    4    4    0    0  7.82005906203E+00  4.43015577473E+01  6.76484590114E+01  8.12409708780E+01  0.00000000000E+00  0.0000E+00  9.0
</event>
<event>
 8    1   5.1859766E+00   4.8330000E+02  -1.0000000E+00   9.3870000E-02
       11   -1    0    0    0    0  0.00000000000E+00  0.00000000000E+00  2.33544441770E+02  2.33544441770E+02  0.00000000000E+00  0.0000E+00  9.0
      -11   -1    0    0    0    0  0.00000000000E+00  0.00000000000E+00 -2.49999996850E+02  2.49999996850E+02  0.00000000000E+00  0.0000E+00  9.0
       24    2    1    2    0    0 -2.50345213524E+00 -1.11718266647E+01 -2.35078802313E+02  2.49507123959E+02  8.28292498208E+01  1.1449E-13  9.0
      -24    2    1    2    0    0  2.50345213524E+00  1.11718266647E+01  2.18623247233E+02  2.34037314658E+02  8.27421503126E+01  1.3653E-15  9.0
      -13    1    3    3    0    0 -2.94745463441E+01  9.29726130691E+00 -3.54653641181E+01  4.70424401421E+01  1.05700000000E-01  0.0000E+00  9.0
       14    1    3    3    0    0  2.69710942089E+01 -2.04690879716E+01 -1.99613438194E+02  2.02464683817E+02  0.00000000000E+00  0.0000E+00  9.0
        1    1    4    4  500    0 -3.38496073142E+00  2.19703888057E+01  2.20480406305E+02  2.21598207366E+02  0.00000000000E+00  0.0000E+00  9.0
       -2    1    4    4    0  500  5.88841286666E+00 -1.07985621410E+01 -1.85715907271E+00  1.24391072920E+01  0.00000000000E+00  0.0000E+00  9.0
</event>
<event>
 8    1   5.1859766E+00   4.9900000E+02  -1.0000000E+00   9.3510000E-02
       11   -1    0    0    0    0  0.00000000000E+00  0.00000000000E+00  2.49999977590E+02  2.49999977590E+02  0.00000000000E+00  0.0000E+00  9.0
      -11   -1    0    0    0    0  0.00000000000E+00  0.00000000000E+00 -2.49035601140E+02  2.49035601140E+02  0.00000000000E+00  0.0000E+00  9.0
       24    2    1    2    0    0  8.32652924166E+00  1.12889308887E+01 -2.35786969946E+02  2.48031677495E+02  7.56798969022E+01  3.9226E-14  9.0
      -24    2    1    2    0    0 -8.32652924166E+00 -1.12889308887E+01  2.36751346406E+02  2.51003901235E+02  8.21887301296E+01  5.4635E-14  9.0
      -13    1    3    3    0    0 -1.90311882436E+01  3.53663010107E+01 -1.35579450418E+02  1.41402828548E+02  1.05700000000E-01  0.0000E+00  9.0
       14    1    3    3    0    0  2.73577174853E+01 -2.40773701220E+01 -1.00207519528E+02  1.06628848948E+02  0.00000000000E+00  0.0000E+00  9.0
       13    1    4    4    0    0 -4.47560099864E+01 -3.54245296817E+00  1.07630431913E+02  1.16618911198E+02  1.05700000000E-01  0.0000E+00  9.0
      -14    1    4    4    0    0  3.64294807447E+01 -7.74647792050E+00  1.29120914493E+02  1.34384990037E+02  0.00000000000E+00  0.0000E+00  9.0
</event>
<event>
 8    1   5.1859766E+00   4.3620000E+02  -1.0000000E+00   9.5030000E-02
       11   -1    0    0    0    0  0.00000000000E+00  0.00000000000E+00  2.39558485520E+02  2.39558485520E+02  0.00000000000E+00  0.0000E+00  9.0
      -11   -1    0    0    0    0  0.00000000000E+00  0.00000000000E+00 -1.98531461360E+02  1.98531461360E+02  0.00000000000E+00  0.0000E+00  9.0
       24    2    1    2    0    0  6.57943664390E+01  1.35055378081E+02  1.57585924503E+02  2.32586093699E+02  8.18175627671E+01  4.8744E-14  9.0
      -24    2    1    2    0    0 -6.57943664390E+01 -1.35055378081E+02 -1.16558900333E+02  2.05503853177E+02  7.79551320974E+01  3.5021E-15  9.0
       -3    1    3    3    0  500  1.88376646439E+01  1.36972277061E+01  7.48354293547E+01  7.83761005841E+01  0.00000000000E+00  0.0000E+00  9.0
        4    1    3    3  500    0  4.69567017952E+01  1.21358150375E+02  8.27504951479E+01  1.54209993115E+02  5.87386917370E-01  0.0000E+00  9.0
        3    1    4    4  504    0  2.49648798522E-01 -6.82578110875E+01 -2.07865797580E+01  7.13531568819E+01  0.00000000000E+00  0.0000E+00  9.0
       -4    1    4    4    0  504 -6.60440152376E+01 -6.67975669936E+01 -9.57723205746E+01  1.34150696296E+02  5.87386917370E-01  0.0000E+00  9.0
</event>
<event>
 8    1   5.1859766E+00   5.0000000E+02  -1.0000000E+00   9.3490000E-02
       11   -1    0    0    0    0  0.00000000000E+00  0.00000000000E+00  2.49999693330E+02  2.49999693330E+02  0.00000000000E+00  0.0000E+00  9.0
      -11   -1    0    0    0    0  0.00000000000E+00  0.00000000000E+00 -2.49999629890E+02  2.49999629890E+02  0.00000000000E+00  0.0000E+00  9.0
       24    2    1    2    0    0 -5.05679661516E+00  7.96862312141E+00 -2.36588736277E+02  2.49730163755E+02  7.93842201546E+01  3.6147E-14  9.0
      -24    2    1    2    0    0  5.05679661516E+00 -7.96862312141E+00  2.36588799717E+02  2.50269159456E+02  8.10636902489E+01  1.3832E-13  9.0
       -1    1    3    3    0  500  3.90572337748E+00 -1.17407366875E+01 -2.24678684901E+02  2.25019134791E+02  0.00000000000E+00  0.0000E+00  9.0
        2    1    3    3  500    0 -8.96251999264E+00  1.97093598089E+01 -1.19100513756E+01  2.47110289641E+01  0.00000000000E+00  0.0000E+00  9.0
        1    1    4    4  504    0  7.06314628654E+00  2.26313068721E+01  2.04551762914E+02  2.05921071766E+02  0.00000000000E+00  0.0000E+00  9.0
       -2    1    4    4    0  504 -2.00634967139E+00 -3.05999299935E+01  3.20370368036E+01  4.43480876900E+01  0.00000000000E+00  0.0000E+00  9.0
</event>
<event>
 8    1   5.1859766E+00   4.9890000E+02  -1.0000000E+00   9.3520000E-02
       11   -1    0    0    0    0  0.00000000000E+00  0.00000000000E+00  2.49930614170E+02  2.49930614170E+02  0.00000000000E+00  0.0000E+00  9.0
      -11   -1    0    0    0    0  0.00000000000E+00  0.00000000000E+00 -2.48956290440E+02  2.48956290440E+02  0.00000000000E+00  0.0000E+00  9.0
       24    2    1    2    0    0 -3.36676425559E+01 -5.13948331879E+01 -2.27647788872E+02  2.48621651930E+02  7.88306475691E+01  4.7053E-14  9.0
      -24    2    1    2    0    0  3.36676425559E+01  5.13948331879E+01  2.28622112592E+02  2.50265252677E+02  8.11768889372E+01  1.3065E-13  9.0
       -3    1    3    3    0  500  1.40841991169E+01 -4.29392888103E+01 -1.53563908232E+02  1.60075048336E+02  0.00000000000E+00  0.0000E+00  9.0
        4    1    3    3  500    0 -4.77518416728E+01 -8.45554437759E+00 -7.40838806402E+01  8.85466035937E+01  5.87386917370E-01  0.0000E+00  9.0
        3    1    4    4  504    0  1.51909551430E-01  2.71230736776E+01  1.95183183393E+02  1.97058771136E+02  0.00000000000E+00  0.0000E+00  9.0
       -4    1    4    4    0  504  3.35157330045E+01  2.42717595103E+01  3.34389291992E+01  5.32064815406E+01  5.87386917370E-01  0.0000E+00  9.0
</event>
<event>
 8    1   5.1859766E+00   5.0000000E+02  -1.0000000E+00   9.3490000E-02
       11   -1    0    0    0    0  0.00000000000E+00  0.00000000000E+00  2.49955938760E+02  2.49955938760E+02  0.00000000000E+00  0.0000E+00  9.0
      -11   -1    0    0    0    0  0.00000000000E+00  0.00000000000E+00 -2.49997904340E+02  2.49997904340E+02  0.00000000000E+00  0.0000E+00  9.0
       24    2    1    2    0    0 -1.17668150207E+01  1.22235639516E+01 -2.35916999041E+02  2.48781184026E+02  7.71192170443E+01  1.6466E-13  9.0
      -24    2    1    2    0    0  1.17668150207E+01 -1.22235639516E+01  2.35875033471E+02  2.51172659074E+02  8.46333255884E+01  5.3722E-15  9.0
       -3    1    3    3    0  500  6.10826690475E+00 -2.76441351173E+01 -1.47076034359E+02  1.49776062886E+02  0.00000000000E+00  0.0000E+00  9.0
        4    1    3    3  500    0 -1.78750819254E+01  3.98676990689E+01 -8.88409646821E+01  9.90051211399E+01  5.87386917370E-01  0.0000E+00  9.0
        3    1    4    4  504    0  3.93990595656E+01  1.34640973480E+01  7.35252207037E+01  8.44957152262E+01  0.00000000000E+00  0.0000E+00  9.0
       -4    1    4    4    0  504 -2.76322445449E+01 -2.56876612996E+01  1.62349812767E+02  1.66676943848E+02  5.87386917370E-01  0.0000E+00  9.0
</event>
<event>
 8    1   5.1859766E+00   4.9940000E+02  -1.0000000E+00   9.3500000E-02
       11   -1    0    0    0    0  0.00000000000E+00  0.00000000000E+00  2.50000000000E+02  2.50000000000E+02  0.00000000000E+00  0.0000E+00  9.0
      -11   -1    0    0    0    0  0.00000000000E+00  0.00000000000E+00 -2.49405964980E+02  2.49405964980E+02  0.00000000000E+00  0.0000E+00  9.0
       24    2    1    2    0    0  1.28218795688E+02  2.37868779179E+01  1.97904839956E+02  2.50104031907E+02  7.98738127886E+01  2.4130E-13  9.0
      -24    2    1    2    0    0 -1.28218795688E+02 -2.37868779179E+01 -1.97310804936E+02  2.49301933079E+02  7.88290870412E+01  8.5866E-15  9.0
       -1    1    3    3    0  500  6.03829762609E+01  4.68304428629E+01  7.06612556383E+01  1.04077890300E+02  0.00000000000E+00  0.0000E+00  9.0
        2    1    3    3  500    0  6.78358194276E+01 -2.30435649450E+01  1.27243584318E+02  1.46026141608E+02  0.00000000000E+00  0.0000E+00  9.0
        3    1    4    4  504    0  7.22900052307E+00 -2.56936282321E+00 -3.95714244608E+01  4.03082833638E+01  0.00000000000E+00  0.0000E+00  9.0
       -4    1    4    4    0  504 -1.35447796212E+02 -2.12175150947E+01 -1.57739380475E+02  2.08993649716E+02  5.87386917370E-01  0.0000E+00  9.0
</event>
<event>
 8    1   5.1859766E+00   4.9320000E+02  -1.0000000E+00   9.3640000E-02
       11   -1    0    0    0    0  0.00000000000E+00  0.00000000000E+00  2.43224907630E+02  2.43224907630E+02  0.00000000000E+00  0.0000E+00  9.0
      -11   -1    0    0    0    0  0.00000000000E+00  0.00000000000E+00 -2.50000000000E+02  2.50000000000E+02  0.00000000000E+00  0.0000E+00  9.0
       24    2    1    2    0    0 -1.87801656667E+01 -2.75201362387E+01 -2.34642109996E+02  2.49982640433E+02  7.95257707504E+01  1.0659E-14  9.0
      -24    2    1    2    0    0  1.87801656667E+01  2.75201362387E+01  2.27867017626E+02  2.43242267203E+02  7.83158369128E+01  4.5116E-14  9.0
       -1    1    3    3    0  500 -2.78180839328E+01 -5.18342026125E+01 -1.82460705207E+02  1.91709518018E+02  0.00000000000E+00  0.0000E+00  9.0
        2    1    3    3  500    0  9.03791826611E+00  2.43140663738E+01 -5.21814047893E+01  5.82731224150E+01  0.00000000000E+00  0.0000E+00  9.0
        1    1    4    4  504    0  4.47129991148E+01  2.44026836667E+01  1.93403731882E+02  1.99999366913E+02  0.00000000000E+00  0.0000E+00  9.0
       -2    1    4    4    0  504 -2.59328334482E+01  3.11745257196E+00  3.44632857443E+01  4.32429002899E+01  0.00000000000E+00  0.0000E+00  9.0
</event>
<event>
 8    1   5.1859766E+00   3.7540000E+02  -1.0000000E+00   9.6770000E-02
       11   -1    0    0    0    0  0.00000000000E+00  0.00000000000E+00  2.50000000000E+02  2.50000000000E+02  0.00000000000E+00  0.0000E+00  9.0
      -11   -1    0    0    0    0  0.00000000000E+00  0.00000000000E+00 -1.40912906440E+02  1.40912906440E+02  0.00000000000E+00  0.0000E+00  9.0
       24    2    1    2    0    0 -3.41370481260E+01 -6.62008206161E+01 -1.03324699195E+02  1.50756190126E+02  8.06445825376E+01  1.7338E-14  9.0
      -24    2    1    2    0    0  3.41370481260E+01  6.62008206161E+01  2.12411792755E+02  2.40156716310E+02  8.37173338245E+01  4.1502E-14  9.0
       -3    1    3    3    0  500  1.69743220418E+00 -5.81491433809E+01 -9.75405579842E+01  1.13570967258E+02  0.00000000000E+00  0.0000E+00  9.0
        4    1    3    3  500    0 -3.58344803301E+01 -8.05167723529E+00 -5.78414121055E+00  3.71852228683E+01  5.87386917370E-01  0.0000E+00  9.0
       13    1    4    4    0    0 -1.34301345529E+01  3.12662303371E+01  2.13130749625E+01  4.01522603404E+01  1.05700000000E-01  0.0000E+00  9.0
      -14    1    4    4    0    0  4.75671826789E+01  3.49345902791E+01  1.91098717792E+02  2.00004455970E+02  0.00000000000E+00  0.0000E+00  9.0
</event>
<event>
 8    1   5.1859766E+00   4.1830000E+02  -1.0000000E+00   9.5510000E-02
       11   -1    0    0    0    0  0.00000000000E+00  0.00000000000E+00  1.76854164980E+02  1.76854164980E+02  0.00000000000E+00  0.0000E+00  9.0
      -11   -1    0    0    0    0  0.00000000000E+00  0.00000000000E+00 -2.47354735360E+02  2.47354735360E+02  0.00000000000E+00  0.0000E+00  9.0
       24    2    1    2    0    0  1.64953905249E+01 -2.08454953187E+01 -2.31129570661E+02  2.42321509081E+02  6.77657933306E+01  3.1459E-13  9.0
      -24    2    1    2    0    0 -1.64953905249E+01  2.08454953187E+01  1.60629000291E+02  1.81887391257E+02  8.10846149424E+01  5.9943E-14  9.0
       -3    1    3    3    0  500  5.93123788336E+00  2.21426659792E+01 -1.28828656411E+02  1.30852206524E+02  0.00000000000E+00  0.0000E+00  9.0
        4    1    3    3  500    0  1.05641526415E+01 -4.29881612979E+01 -1.02300914250E+02  1.11469302557E+02  5.87386917370E-01  0.0000E+00  9.0
        3    1    4    4  504    0  2.94604708558E+01  2.51493456867E+01  8.24975512357E+01  9.11386575028E+01  0.00000000000E+00  0.0000E+00  9.0
       -4    1    4    4    0  504 -4.59558613807E+01 -4.30385036804E+00  7.81314490549E+01  9.07487337545E+01  5.87386917370E-01  0.0000E+00  9.0
</event>
<event>
 8    1   5.1859766E+00   3.6880000E+02  -1.0000000E+00   9.6990000E-02
       11   -1    0    0    0    0  0.00000000000E+00  0.00000000000E+00  1.45872030440E+02  1.45872030440E+02  0.00000000000E+00  0.0000E+00  9.0
      -11   -1    0    0    0    0  0.00000000000E+00  0.00000000000E+00 -2.33115150590E+02  2.33115150590E+02  0.00000000000E+00  0.0000E+00  9.0
       24    2    1    2    0    0  1.49322940587E+01 -1.06849160946E+01 -2.14474859008E+02  2.30395749531E+02  8.21315738180E+01  4.3782E-14  9.0
      -24    2    1    2    0    0 -1.49322940587E+01  1.06849160946E+01  1.27231738868E+02  1.48591431501E+02  7.45275606891E+01  1.2904E-13  9.0
       -1    1    3    3    0  500  3.05243251499E+00 -3.21301473343E+01 -1.98562693935E+02  2.01168603750E+02  0.00000000000E+00  0.0000E+00  9.0
        2    1    3    3  500    0  1.18798615437E+01  2.14452312397E+01 -1.59121650731E+01  2.92271457815E+01  0.00000000000E+00  0.0000E+00  9.0
        3    1    4    4  504    0  1.64532757862E+01  3.28012170236E+01  4.68705364117E+01  5.95271140393E+01  0.00000000000E+00  0.0000E+00  9.0
       -4    1    4    4    0  504 -3.13855698448E+01 -2.21163009289E+01  8.03612024564E+01  8.90643174616E+01  5.87386917370E-01  0.0000E+00  9.0
</event>
<event>
 8    1   5.1859766E+00   4.9750000E+02  -1.0000000E+00   9.3550000E-02
       11   -1    0    0    0    0  0.00000000000E+00  0.00000000000E+00  2.49998738590E+02  2.49998738590E+02  0.00000000000E+00  0.0000E+00  9.0
      -11   -1    0    0    0    0  0.00000000000E+00  0.00000000000E+00 -2.47481355630E+02  2.47481355630E+02  0.00000000000E+00  0.0000E+00  9.0
       24    2    1    2    0    0  1.78479321815E+01  9.03822430803E+01 -2.15069659010E+02  2.48018378702E+02  8.22840166739E+01  1.6436E-14  9.0
      -24    2    1    2    0    0 -1.78479321815E+01 -9.03822430803E+01  2.17587041970E+02  2.49461715529E+02  7.99970507832E+01  4.2375E-15  9.0
       -1    1    3    3    0  500  8.94596953668E+00 -1.04401973979E+01 -4.63694746193E+00  1.45096304027E+01  0.00000000000E+00  0.0000E+00  9.0
        2    1    3    3  500    0  8.90196264479E+00  1.00822440478E+02 -2.10432711548E+02  2.33508748299E+02  0.00000000000E+00  0.0000E+00  9.0
       13    1    4    4    0    0  1.23900784584E+01 -3.67259139129E+01  2.23535050114E+01  4.47436828583E+01  1.05700000000E-01  0.0000E+00  9.0
      -14    1    4    4    0    0 -3.02380106399E+01 -5.36563291675E+01  1.95233536958E+02  2.04718032671E+02  0.00000000000E+00  0.0000E+00  9.0
</event>
<event>
 8    1   5.1859766E+00   4.9740000E+02  -1.0000000E+00   9.3550000E-02
       11   -1    0    0    0    0  0.00000000000E+00  0.00000000000E+00  2.47908270010E+02  2.47908270010E+02  0.00000000000E+00  0.0000E+00  9.0
      -11   -1    0    0    0    0  0.00000000000E+00  0.00000000000E+00 -2.49470280620E+02  2.49470280620E+02  0.00000000000E+00  0.0000E+00  9.0
       24    2    1    2    0    0  1.65765164900E+01  3.14944680521E+01 -2.33480567973E+02  2.49548913443E+02  8.05903354160E+01  1.6734E-14  9.0
      -24    2    1    2    0    0 -1.65765164900E+01 -3.14944680521E+01  2.31918557363E+02  2.47829637184E+02  7.97911611669E+01  6.0039E-14  9.0
       -3    1    3    3    0  500  1.49845105108E+01  5.55953788249E+01 -2.00893806337E+02  2.08982542636E+02  0.00000000000E+00  0.0000E+00  9.0
        4    1    3    3  500    0  1.59200597922E+00 -2.41009107728E+01 -3.25867616364E+01  4.05663708071E+01  5.87386917370E-01  0.0000E+00  9.0
       13    1    4    4    0    0 -2.08601394287E+01 -4.06436119633E+01  5.90154206727E+01  7.46316264065E+01  1.05700000000E-01  0.0000E+00  9.0
      -14    1    4    4    0    0  4.28362293866E+00  9.14914391123E+00  1.72903136691E+02  1.73198010777E+02  0.00000000000E+00  0.0000E+00  9.0
</event>
<event>
 8    1   5.1859766E+00   4.9900000E+02  -1.0000000E+00   9.3510000E-02
       11   -1    0    0    0    0  0.00000000000E+00  0.00000000000E+00  2.48969008240E+02  2.48969008240E+02  0.00000000000E+00  0.0000E+00  9.0
      -11   -1    0    0    0    0  0.00000000000E+00  0.00000000000E+00 -2.49997940940E+02  2.49997940940E+02  0.00000000000E+00  0.0000E+00  9.0
       24    2    1    2    0    0  1.22322327902E+02  4.52665927670E+01 -1.97110526341E+02  2.50045961033E+02  8.16002862159E+01  4.0711E-14  9.0
      -24    2    1    2    0    0 -1.22322327902E+02 -4.52665927670E+01  1.96081593641E+02  2.48920988144E+02  8.06340539097E+01  4.8370E-14  9.0
       -1    1    3    3    0  500  5.35802225181E+01  2.29394090183E+00 -2.37223773675E+01  5.86417393834E+01  0.00000000000E+00  0.0000E+00  9.0
        2    1    3    3  500    0  6.87421053840E+01  4.29726518652E+01 -1.73388148973E+02  1.91404221650E+02  0.00000000000E+00  0.0000E+00  9.0
        3    1    4    4  504    0  2.70120664069E+00 -2.67508530950E+01  3.16673868056E+01  4.15418830305E+01  0.00000000000E+00  0.0000E+00  9.0
       -4    1    4    4    0  504 -1.25023534543E+02 -1.85157396721E+01  1.64414206835E+02  2.07379105114E+02  5.87386917370E-01  0.0000E+00  9.0
</event>
<event>
 8    1   5.1859766E+00   4.9880000E+02  -1.0000000E+00   9.3520000E-02
       11   -1    0    0    0    0  0.00000000000E+00  0.00000000000E+00  2.50000000000E+02  2.50000000000E+02  0.00000000000E+00  0.0000E+00  9.0
      -11   -1    0    0    0    0  0.00000000000E+00  0.00000000000E+00 -2.48779850030E+02  2.48779850030E+02  0.00000000000E+00  0.0000E+00  9.0
       24    2    1    2    0    0 -1.51101261737E+02 -1.11217881098E+00 -1.79649845886E+02  2.48540899066E+02  8.16436350334E+01  1.2516E-13  9.0
      -24    2    1    2    0    0  1.51101261737E+02  1.11217881098E+00  1.80869995846E+02  2.50238950965E+02  8.40996369934E+01  3.8999E-14  9.0
       -1    1    3    3    0  500 -1.31289983757E+02  2.97450094403E+01 -1.48414848651E+02  2.00371636520E+02  0.00000000000E+00  0.0000E+00  9.0
        2    1    3    3  500    0 -1.98112779796E+01 -3.08571882512E+01 -3.12349972354E+01  4.81692625463E+01  0.00000000000E+00  0.0000E+00  9.0
        3    1    4    4  504    0  8.35995334807E+01  3.98583661136E-01  1.58367892267E+02  1.79079396269E+02  0.00000000000E+00  0.0000E+00  9.0
       -4    1    4    4    0  504  6.75017282562E+01  7.13595149843E-01  2.25021035796E+01  7.11595546958E+01  5.87386917370E-01  0.0000E+00  9.0
</event>
<event>
 8    1   5.1859766E+00   3.9510000E+02  -1.0000000E+00   9.6170000E-02
       11   -1    0    0    0    0  0.00000000000E+00  0.00000000000E+00  2.15848837260E+02  2.15848837260E+02  0.00000000000E+00  0.0000E+00  9.0
      -11   -1    0    0    0    0  0.00000000000E+00  0.00000000000E+00 -1.80776452920E+02  1.80776452920E+02  0.00000000000E+00  0.0000E+00  9.0
       24    2    1    2    0    0 -3.45988828682E+01 -8.96943071230E+01 -1.29914981232E+02  1.89363476271E+02  9.86836986076E+01  1.8164E-13  9.0
      -24    2    1    2    0    0  3.45988828682E+01  8.96943071230E+01  1.64987365572E+02  2.07261813896E+02  8.05883197182E+01  4.9287E-14  9.0
       -1    1    3    3    0  500  1.93904200763E+01 -8.07343955916E+01 -7.95312974634E+01  1.14975033370E+02  0.00000000000E+00  0.0000E+00  9.0
        2    1    3    3  500    0 -5.39893029445E+01 -8.95991153139E+00 -5.03836837684E+01  7.43884429005E+01  0.00000000000E+00  0.0000E+00  9.0
        1    1    4    4  504    0  2.58185815078E+01  7.95642863548E+01  1.72631505508E+02  1.91829902539E+02  0.00000000000E+00  0.0000E+00  9.0
       -2    1    4    4    0  504  8.78030136039E+00  1.01300207683E+01 -7.64413993637E+00  1.54319113564E+01  0.00000000000E+00  0.0000E+00  9.0
</event>
<event>
 8    1   5.1859766E+00   4.9990000E+02  -1.0000000E+00   9.3490000E-02
       11   -1    0    0    0    0  0.00000000000E+00  0.00000000000E+00  2.49937929050E+02  2.49937929050E+02  0.00000000000E+00  0.0000E+00  9.0
      -11   -1    0    0    0    0  0.00000000000E+00  0.00000000000E+00 -2.49999186680E+02  2.49999186680E+02  0.00000000000E+00  0.0000E+00  9.0
       24    2    1    2    0    0  8.46899977938E+01 -1.01574744139E+01 -2.20438389925E+02  2.50138538193E+02  8.18574035972E+01  3.6819E-14  9.0
      -24    2    1    2    0    0 -8.46899977938E+01  1.01574744139E+01  2.20377132295E+02  2.49798577528E+02  8.09794966854E+01  2.2157E-14  9.0
      -13    1    3    3    0    0  9.44556336111E+01 -2.72320655812E+01 -1.77328998500E+02  2.02753636214E+02  1.05700000000E-01  0.0000E+00  9.0
       14    1    3    3    0    0 -9.76563581738E+00  1.70745911673E+01 -4.31093914254E+01  4.73849019786E+01  0.00000000000E+00  0.0000E+00  9.0
        1    1    4    4  500    0 -7.76877911055E+01  3.14868249580E+01  2.07789818455E+02  2.24061200760E+02  0.00000000000E+00  0.0000E+00  9.0
       -2    1    4    4    0  500 -7.00220668830E+00 -2.13293505441E+01  1.25873138404E+01  2.57373767671E+01  0.00000000000E+00  0.0000E+00  9.0
</event>
<event>
 8    1   5.1859766E+00   4.8670000E+02  -1.0000000E+00   9.3790000E-02
       11   -1    0    0    0    0  0.00000000000E+00  0.00000000000E+00  2.49218603160E+02  2.49218603160E+02  0.00000000000E+00  0.0000E+00  9.0
      -11   -1    0    0    0    0  0.00000000000E+00  0.00000000000E+00 -2.37610902810E+02  2.37610902810E+02  0.00000000000E+00  0.0000E+00  9.0
       24    2    1    2    0    0  4.30770567629E+01 -8.14441502935E+01 -2.02302564205E+02  2.39606984441E+02  8.94225758554E+01  2.1963E-13  9.0
      -24    2    1    2    0    0 -4.30770567629E+01  8.14441502935E+01  2.13910264555E+02  2.47222521521E+02  8.29010942550E+01  7.8005E-14  9.0
       -3    1    3    3    0  500  3.61890181883E+01 -3.41593069688E+00 -1.22514162154E+02  1.27792932310E+02  0.00000000000E+00  0.0000E+00  9.0
        4    1    3    3  500    0  6.88803857459E+00 -7.80282195966E+01 -7.97884020510E+01  1.11814052131E+02  5.87386917370E-01  0.0000E+00  9.0
        1    1    4    4  504    0 -2.95529755194E+01  4.17662855202E+01  1.94335654550E+02  2.00958074228E+02  0.00000000000E+00  0.0000E+00  9.0
       -2    1    4    4    0  504 -1.35240812435E+01  3.96778647732E+01  1.95746100057E+01  4.62644472929E+01  0.00000000000E+00  0.0000E+00  9.0
</event>
<event>
 8    1   5.1859766E+00   5.0000000E+02  -1.0000000E+00   9.3490000E-02
       11   -1    0    0    0    0  0.00000000000E+00  0.00000000000E+00  2.49999631100E+02  2.49999631100E+02  0.00000000000E+00  0.0000E+00  9.0
      -11   -1    0    0    0    0  0.00000000000E+00  0.00000000000E+00 -2.49989636450E+02  2.49989636450E+02  0.00000000000E+00  0.0000E+00  9.0
       24    2    1    2    0    0  6.28562529548E+01 -7.48900655552E+01 -2.14687394331E+02  2.50693270447E+02  8.48351820196E+01  9.8127E-14  9.0
      -24    2    1    2    0    0 -6.28562529548E+01  7.48900655552E+01  2.14697388991E+02  2.49295997095E+02  8.05859471229E+01  5.5537E-14  9.0
       -3    1    3    3    0  500  2.10909341884E+01 -2.09433222313E+00 -1.29077396992E+02  1.30805917858E+02  0.00000000000E+00  0.0000E+00  9.0
        4    1    3    3  500    0  4.17653187664E+01 -7.27957333321E+01 -8.56099973392E+01  1.19887352589E+02  5.87386917370E-01  0.0000E+00  9.0
        3    1    4    4  504    0 -6.13572758788E+01  8.43960311791E+01  2.15690732141E+02  2.39603625419E+02  0.00000000000E+00  0.0000E+00  9.0
       -4    1    4    4    0  504 -1.49897707604E+00 -9.50596562385E+00 -9.93343150057E-01  9.69237167678E+00  5.87386917370E-01  0.0000E+00  9.0
</event>
<event>
 8    1   5.1859766E+00   4.9240000E+02  -1.0000000E+00   9.3660000E-02
       11   -1    0    0    0    0  0.00000000000E+00  0.00000000000E+00  2.49999999980E+02  2.49999999980E+02  0.00000000000E+00  0.0000E+00  9.0
      -11   -1    0    0    0    0  0.00000000000E+00  0.00000000000E+00 -2.42450949900E+02  2.42450949900E+02  0.00000000000E+00  0.0000E+00  9.0
       24    2    1    2    0    0  1.44755103653E+01  7.96440134681E+01 -2.17797726308E+02  2.39980777247E+02  6.00184520080E+01  4.3204E-14  9.0
      -24    2    1    2    0    0 -1.44755103653E+01 -7.96440134681E+01  2.25346776388E+02  2.52470172630E+02  8.00456692012E+01  5.0443E-14  9.0
       -3    1    3    3    0  500 -1.83302888257E+01  1.63345223109E+01 -9.36197595579E+01  9.67857194386E+01  0.00000000000E+00  0.0000E+00  9.0
        4    1    3    3  500    0  3.28057991910E+01  6.33094911572E+01 -1.24177966750E+02  1.43195057808E+02  5.87386917370E-01  0.0000E+00  9.0
        1    1    4    4  504    0 -2.15465793817E+01 -9.33853944540E+01  1.71640984812E+02  1.96585133333E+02  0.00000000000E+00  0.0000E+00  9.0
       -2    1    4    4    0  504  7.07106901637E+00  1.37413809860E+01  5.37057915758E+01  5.58850392969E+01  0.00000000000E+00  0.0000E+00  9.0
</event>
<event>
 8    1   5.1859766E+00   5.0000000E+02  -1.0000000E+00   9.3490000E-02
       11   -1    0    0    0    0  0.00000000000E+00  0.00000000000E+00  2.49955495930E+02  2.49955495930E+02  0.00000000000E+00  0.0000E+00  9.0
      -11   -1    0    0    0    0  0.00000000000E+00  0.00000000000E+00 -2.50000000000E+02  2.50000000000E+02  0.00000000000E+00  0.0000E+00  9.0
       24    2    1    2    0    0 -5.18331466022E+01 -3.27587751253E+01 -2.28890849751E+02  2.49935912561E+02  7.94803551435E+01  7.5451E-14  9.0
      -24    2    1    2    0    0  5.18331466022E+01  3.27587751253E+01  2.28846345681E+02  2.50019583370E+02  7.98707061616E+01  3.7932E-13  9.0
       -1    1    3    3    0  500 -4.34234912070E+01 -5.84425403551E+01 -1.77977783060E+02  1.92294621284E+02  0.00000000000E+00  0.0000E+00  9.0
        2    1    3    3  500    0 -8.40965539515E+00  2.56837652298E+01 -5.09130666907E+01  5.76412912771E+01  0.00000000000E+00  0.0000E+00  9.0
        1    1    4    4  504    0  2.59165434067E+01 -2.47580978309E+01  6.15698280703E+01  7.12423635133E+01  0.00000000000E+00  0.0000E+00  9.0
       -2    1    4    4    0  504  2.59166031955E+01  5.75168729562E+01  1.67276517611E+02  1.78777219857E+02  0.00000000000E+00  0.0000E+00  9.0
</event>
<event>
 8    1   5.1859766E+00   3.3330000E+02  -1.0000000E+00   9.8210000E-02
       11   -1    0    0    0    0  0.00000000000E+00  0.00000000000E+00  2.39183469780E+02  2.39183469780E+02  0.00000000000E+00  0.0000E+00  9.0
      -11   -1    0    0    0    0  0.00000000000E+00  0.00000000000E+00 -1.16098150000E+02  1.16098150000E+02  0.00000000000E+00  0.0000E+00  9.0
       24    2    1    2    0    0 -1.48718650567E+02 -6.36155156313E+00  1.58044585309E+01  1.61208351858E+02  5.98384945892E+01  4.5941E-14  9.0
      -24    2    1    2    0    0  1.48718650567E+02  6.36155156313E+00  1.07280861243E+02  1.94073267917E+02  6.32261319875E+01  1.6810E-14  9.0
      -13    1    3    3    0    0 -1.00472100504E+02  1.79619530443E+01  2.79625165154E+01  1.05826217164E+02  1.05700000000E-01  0.0000E+00  9.0
       14    1    3    3    0    0 -4.82465500633E+01 -2.43235046075E+01 -1.21580579846E+01  5.53821346948E+01  0.00000000000E+00  0.0000E+00  9.0
        3    1    4    4  500    0  1.15939910583E+02  2.63744472026E+01  9.91386269971E+01  1.54810018068E+02  0.00000000000E+00  0.0000E+00  9.0
       -4    1    4    4    0  500  3.27787399838E+01 -2.00128956394E+01  8.14223424602E+00  3.92632498490E+01  5.87386917370E-01  0.0000E+00  9.0
</event>
<event>
 8    1   5.1859766E+00   2.1300000E+02  -1.0000000E+00   1.0400000E-01
       11   -1    0    0    0    0  0.00000000000E+00  0.00000000000E+00  4.63645639170E+01  4.63645639170E+01  0.00000000000E+00  0.0000E+00  9.0
      -11   -1    0    0    0    0  0.00000000000E+00  0.00000000000E+00 -2.44615139080E+02  2.44615139080E+02  0.00000000000E+00  0.0000E+00  9.0
       24    2    1    2    0    0  1.72865593801E+00 -3.21032988276E+01 -1.82239505532E+02  2.01708367363E+02  8.02584452917E+01  3.8693E-14  9.0
      -24    2    1    2    0    0 -1.72865593801E+00  3.21032988276E+01 -1.60110696281E+01  8.92713356311E+01  8.17276389464E+01  2.9261E-13  9.0
       -3    1    3    3    0  500  1.93113827280E+01 -2.27626810413E+00 -3.64011215750E+00  1.97828540880E+01  0.00000000000E+00  0.0000E+00  9.0
        4    1    3    3  500    0 -1.75827267900E+01 -2.98270307235E+01 -1.78599393374E+02  1.81925513275E+02  5.87386917370E-01  0.0000E+00  9.0
        3    1    4    4  504    0  4.19971223778E+00  3.03142427020E+01  2.99918674863E+01  4.28497725641E+01  0.00000000000E+00  0.0000E+00  9.0
       -4    1    4    4    0  504 -5.92836817578E+00  1.78905612560E+00 -4.60029371144E+01  4.64215630670E+01  5.87386917370E-01  0.0000E+00  9.0
</event>
<event>
 8    1   5.1859766E+00   4.9990000E+02  -1.0000000E+00   9.3490000E-02
       11   -1    0    0    0    0  0.00000000000E+00  0.00000000000E+00  2.49969444560E+02  2.49969444560E+02  0.00000000000E+00  0.0000E+00  9.0
      -11   -1    0    0    0    0  0.00000000000E+00  0.00000000000E+00 -2.49928427610E+02  2.49928427610E+02  0.00000000000E+00  0.0000E+00  9.0
       24    2    1    2    0    0  2.00228932712E+02  6.30945966815E+01  1.09497979729E+02  2.50287963621E+02  8.11276989905E+01  9.6050E-14  9.0
      -24    2    1    2    0    0 -2.00228932712E+02 -6.30945966815E+01 -1.09456962769E+02  2.49609908555E+02  7.90678577200E+01  5.3547E-14  9.0
       -3    1    3    3    0  500  3.99766972326E+00  1.66566731113E+01 -5.69708521361E+00  1.80522270727E+01  0.00000000000E+00  0.0000E+00  9.0
        4    1    3    3  500    0  1.96231262989E+02  4.64379235702E+01  1.15195064943E+02  2.32235736549E+02  5.87386917370E-01  0.0000E+00  9.0
        1    1    4    4  504    0 -1.02118082237E+02 -8.26376158553E+00 -1.65321320229E+01  1.03777183738E+02  0.00000000000E+00  0.0000E+00  9.0
       -2    1    4    4    0  504 -9.81108504756E+01 -5.48308350959E+01 -9.29248307460E+01  1.45832724817E+02  0.00000000000E+00  0.0000E+00  9.0
</event>
<event>
 8    1   5.1859766E+00   4.8250000E+02  -1.0000000E+00   9.3890000E-02
       11   -1    0    0    0    0  0.00000000000E+00  0.00000000000E+00  2.49737520370E+02  2.49737520370E+02  0.00000000000E+00  0.0000E+00  9.0
      -11   -1    0    0    0    0  0.00000000000E+00  0.00000000000E+00 -2.33087386800E+02  2.33087386800E+02  0.00000000000E+00  0.0000E+00  9.0
       24    2    1    2    0    0 -1.04471967595E+02 -2.01604185354E+02  1.77207821449E+01  2.41806030904E+02  8.12249401125E+01  7.4886E-14  9.0
      -24    2    1    2    0    0  1.04471967595E+02  2.01604185354E+02 -1.07064858043E+00  2.41018876265E+02  8.08103512070E+01  6.3652E-15  9.0
       -1    1    3    3    0  500 -9.09165981481E+01 -1.31977808957E+02  4.39483179539E+01  1.66178893145E+02  0.00000000000E+00  0.0000E+00  9.0
        2    1    3    3  500    0 -1.35553694473E+01 -6.96263763971E+01 -2.62275358089E+01  7.56271377592E+01  0.00000000000E+00  0.0000E+00  9.0
        3    1    4    4  504    0  5.06536261557E+01  2.75444081320E+01  9.88156440315E+00  5.84989707355E+01  0.00000000000E+00  0.0000E+00  9.0
       -4    1    4    4    0  504  5.38183414397E+01  1.74059777222E+02 -1.09522129836E+01  1.82519905530E+02  5.87386917370E-01  0.0000E+00  9.0
</event>
<event>
 8    1   5.1859766E+00   4.9680000E+02  -1.0000000E+00   9.3560000E-02
       11   -1    0    0    0    0  0.00000000000E+00  0.00000000000E+00  2.49988918610E+02  2.49988918610E+02  0.00000000000E+00  0.0000E+00  9.0
      -11   -1    0    0    0    0  0.00000000000E+00  0.00000000000E+00 -2.46786022790E+02  2.46786022790E+02  0.00000000000E+00  0.0000E+00  9.0
       24    2    1    2    0    0 -4.97523795135E+01 -5.75080426979E+01 -2.20810314093E+02  2.46900019537E+02  8.01245942001E+01  1.1437E-13  9.0
      -24    2    1    2    0    0  4.97523795135E+01  5.75080426979E+01  2.24013209913E+02  2.49874921865E+02  8.04554791131E+01  3.5656E-13  9.0
      -13    1    3    3    0    0 -1.59448506306E+01  1.86263007759E+01 -3.03341404866E+01  3.90044688950E+01  1.05700000000E-01  0.0000E+00  9.0
       14    1    3    3    0    0 -3.38075288829E+01 -7.61343434739E+01 -1.90476173606E+02  2.07895550642E+02  0.00000000000E+00  0.0000E+00  9.0
        3    1    4    4  500    0  1.24859910111E+01  4.67104989247E+01  1.96362227693E+02  2.02227335308E+02  0.00000000000E+00  0.0000E+00  9.0
       -4    1    4    4    0  500  3.72663885024E+01  1.07975437732E+01  2.76509822194E+01  4.76475865562E+01  5.87386917370E-01  0.0000E+00  9.0
</event>
<event>
 8    1   5.1859766E+00   4.8410000E+02  -1.0000000E+00   9.3850000E-02
       11   -1    0    0    0    0  0.00000000000E+00  0.00000000000E+00  2.34323143310E+02  2.34323143310E+02  0.00000000000E+00  0.0000E+00  9.0
      -11   -1    0    0    0    0  0.00000000000E+00  0.00000000000E+00 -2.50000000000E+02  2.50000000000E+02  0.00000000000E+00  0.0000E+00  9.0
       24    2    1    2    0    0 -2.90998703555E+01  1.11446043149E+02 -2.05081881157E+02  2.48273971074E+02  7.94629709097E+01  4.0937E-13  9.0
      -24    2    1    2    0    0  2.90998703555E+01 -1.11446043149E+02  1.89405024467E+02  2.36049172241E+02  8.11044106929E+01  1.0983E-13  9.0
       -1    1    3    3    0  500  1.07160814014E+01  8.34025723728E+01 -1.65034658436E+02  1.85222196198E+02  0.00000000000E+00  0.0000E+00  9.0
        2    1    3    3  500    0 -3.98159517568E+01  2.80434707758E+01 -4.00472227209E+01  6.30517748768E+01  0.00000000000E+00  0.0000E+00  9.0
        1    1    4    4  504    0 -4.74245652523E+00 -3.96843030265E+01  1.20303916479E+01  4.17380536656E+01  0.00000000000E+00  0.0000E+00  9.0
       -2    1    4    4    0  504  3.38423268807E+01 -7.17617401221E+01  1.77374632819E+02  1.94311118575E+02  0.00000000000E+00  0.0000E+00  9.0
</event>
<event>
 8    1   5.1859766E+00   4.8580000E+02  -1.0000000E+00   9.3810000E-02
       11   -1    0    0    0    0  0.00000000000E+00  0.00000000000E+00  2.36040687270E+02  2.36040687270E+02  0.00000000000E+00  0.0000E+00  9.0
      -11   -1    0    0    0    0  0.00000000000E+00  0.00000000000E+00 -2.49999999990E+02  2.49999999990E+02  0.00000000000E+00  0.0000E+00  9.0
       24    2    1    2    0    0 -5.61911363562E+00 -1.69950976990E+02  1.50885331825E+02  2.38636853081E+02  7.25689690590E+01  1.2938E-13  9.0
      -24    2    1    2    0    0  5.61911363562E+00  1.69950976990E+02 -1.64844644535E+02  2.47403834177E+02  7.15541145977E+01  2.2810E-13  9.0
       -1    1    3    3    0  500 -1.35910007061E+01 -1.74282664998E+02  1.37225950599E+02  2.22238889794E+02  0.00000000000E+00  0.0000E+00  9.0
        2    1    3    3  500    0  7.97188707043E+00  4.33168800817E+00  1.36593812266E+01  1.63979632869E+01  0.00000000000E+00  0.0000E+00  9.0
        3    1    4    4  504    0 -1.09926115497E+01  6.95990794682E+01 -2.56113080824E+01  7.49720512804E+01  0.00000000000E+00  0.0000E+00  9.0
       -4    1    4    4    0  504  1.66117251853E+01  1.00351897522E+02 -1.39233336453E+02  1.72431782897E+02  5.87386917370E-01  0.0000E+00  9.0
</event>
<event>
 8    1   5.1859766E+00   4.4290000E+02  -1.0000000E+00   9.4850000E-02
       11   -1    0    0    0    0  0.00000000000E+00  0.00000000000E+00  2.49895184500E+02  2.49895184500E+02  0.00000000000E+00  0.0000E+00  9.0
      -11   -1    0    0    0    0  0.00000000000E+00  0.00000000000E+00 -1.96246809230E+02  1.96246809230E+02  0.00000000000E+00  0.0000E+00  9.0
       24    2    1    2    0    0  3.59724998842E+00 -1.06513061086E+01 -1.79981593466E+02  1.98525936402E+02  8.30227854768E+01  2.4111E-14  9.0
      -24    2    1    2    0    0 -3.59724998842E+00  1.06513061086E+01  2.33629968736E+02  2.47616057335E+02  8.12672075895E+01  5.2746E-14  9.0
       -3    1    3    3    0  500 -4.62244994095E+00 -4.55644386026E+01 -7.84042209301E+01  9.08003687673E+01  0.00000000000E+00  0.0000E+00  9.0
        4    1    3    3  500    0  8.21969992937E+00  3.49131324940E+01 -1.01577372536E+02  1.07725567634E+02  5.87386917370E-01  0.0000E+00  9.0
        1    1    4    4  504    0  1.45428002081E+01 -3.00220886003E+01  1.40208291295E+02  1.44122114159E+02  0.00000000000E+00  0.0000E+00  9.0
       -2    1    4    4    0  504 -1.81400501965E+01  4.06733947088E+01  9.34216774407E+01  1.03493943176E+02  0.00000000000E+00  0.0000E+00  9.0
</event>
<event>
 8    1   5.1859766E+00   4.9120000E+02  -1.0000000E+00   9.3690000E-02
       11   -1    0    0    0    0  0.00000000000E+00  0.00000000000E+00  2.45855322280E+02  2.45855322280E+02  0.00000000000E+00  0.0000E+00  9.0
      -11   -1    0    0    0    0  0.00000000000E+00  0.00000000000E+00 -2.45311055670E+02  2.45311055670E+02  0.00000000000E+00  0.0000E+00  9.0
       24    2    1    2    0    0 -1.29437035569E+01 -1.55285080279E+01 -2.31606367678E+02  2.46163790906E+02  8.09100017359E+01  2.7863E-14  9.0
      -24    2    1    2    0    0  1.29437035569E+01  1.55285080279E+01  2.32150634298E+02  2.45002587051E+02  7.56549841958E+01  3.4472E-14  9.0
       -1    1    3    3    0  500  4.18154789361E-01  2.55172064928E+01 -1.63850506105E+02  1.65826086704E+02  0.00000000000E+00  0.0000E+00  9.0
        2    1    3    3  500    0 -1.33618583463E+01 -4.10457145207E+01 -6.77558615722E+01  8.03377042015E+01  0.00000000000E+00  0.0000E+00  9.0
        1    1    4    4  504    0 -1.04501431061E+01  3.99803878420E+01  1.60935112340E+02  1.66155792216E+02  0.00000000000E+00  0.0000E+00  9.0
       -2    1    4    4    0  504  2.33938466631E+01 -2.44518798141E+01  7.12155219575E+01  7.88467948354E+01  0.00000000000E+00  0.0000E+00  9.0
</event>
<event>
 8    1   5.1859766E+00   4.1870000E+02  -1.0000000E+00   9.5500000E-02
       11   -1    0    0    0    0  0.00000000000E+00  0.00000000000E+00  2.39459687430E+02  2.39459687430E+02  0.00000000000E+00  0.0000E+00  9.0
      -11   -1    0    0    0    0  0.00000000000E+00  0.00000000000E+00 -1.83007194970E+02  1.83007194970E+02  0.00000000000E+00  0.0000E+00  9.0
       24    2    1    2    0    0  1.85960502047E+01 -2.84797794371E+01 -1.62902758285E+02  1.86501864880E+02  8.41945724305E+01  8.5464E-14  9.0
      -24    2    1    2    0    0 -1.85960502047E+01  2.84797794371E+01  2.19355250745E+02  2.35965017510E+02  8.00365700109E+01  6.2094E-15  9.0
       -1    1    3    3    0  500  2.49215796180E+01  1.17929769456E+01 -1.33298874256E+02  1.36120348640E+02  0.00000000000E+00  0.0000E+00  9.0
        2    1    3    3  500    0 -6.32552941336E+00 -4.02727563827E+01 -2.96038840287E+01  5.03815162396E+01  0.00000000000E+00  0.0000E+00  9.0
        3    1    4    4  504    0 -4.30565028116E+01  1.63420357300E+01  6.77594515914E+01  8.19284312442E+01  0.00000000000E+00  0.0000E+00  9.0
       -4    1    4    4    0  504  2.44604526069E+01  1.21377437071E+01  1.51595799153E+02  1.54036586266E+02  5.87386917370E-01  0.0000E+00  9.0
</event>
<event>
 8    1   5.1859766E+00   4.2000000E+02  -1.0000000E+00   9.5460000E-02
       11   -1    0    0    0    0  0.00000000000E+00  0.00000000000E+00  1.76365302570E+02  1.76365302570E+02  0.00000000000E+00  0.0000E+00  9.0
      -11   -1    0    0    0    0  0.00000000000E+00  0.00000000000E+00 -2.49999999950E+02  2.49999999950E+02  0.00000000000E+00  0.0000E+00  9.0
       24    2    1    2    0    0 -2.05311140084E+01 -3.73839721636E+01 -2.28735874797E+02  2.46189780506E+02  8.04376751859E+01  1.1198E-14  9.0
      -24    2    1    2    0    0  2.05311140084E+01  3.73839721636E+01  1.55101177417E+02  1.80175522010E+02  8.11649892406E+01  1.4247E-15  9.0
       -3    1    3    3    0  500 -1.89045266106E+00 -6.04402578658E+01 -1.69118124919E+02  1.79603838373E+02  0.00000000000E+00  0.0000E+00  9.0
        4    1    3    3  500    0 -1.86406613474E+01  2.30562857023E+01 -5.96177498774E+01  6.65859421326E+01  5.87386917370E-01  0.0000E+00  9.0
        3    1    4    4  504    0 -2.48264422266E+01  3.09359295584E+01  4.01941904382E+01  5.64708501463E+01  0.00000000000E+00  0.0000E+00  9.0
       -4    1    4    4    0  504  4.53575562350E+01  6.44804260516E+00  1.14906986978E+02  1.23704671864E+02  5.87386917370E-01  0.0000E+00  9.0
</event>
<event>
 8    1   5.1859766E+00   4.9780000E+02  -1.0000000E+00   9.3540000E-02
       11   -1    0    0    0    0  0.00000000000E+00  0.00000000000E+00  2.47758065920E+02  2.47758065920E+02  0.00000000000E+00  0.0000E+00  9.0
      -11   -1    0    0    0    0  0.00000000000E+00  0.00000000000E+00 -2.50000000000E+02  2.50000000000E+02  0.00000000000E+00  0.0000E+00  9.0
       24    2    1    2    0    0  1.44534902250E+02 -5.05124208368E+01 -1.82332653800E+02  2.47982220718E+02  6.93407710033E+01  4.5219E-14  9.0
      -24    2    1    2    0    0 -1.44534902250E+02  5.05124208368E+01  1.80090719730E+02  2.49775845198E+02  8.07060275572E+01  1.2797E-13  9.0
       -1    1    3    3    0  500  1.57563021985E+01  2.10184770886E+00  3.07322100003E+00  1.61902288457E+01  0.00000000000E+00  0.0000E+00  9.0
        2    1    3    3  500    0  1.28778600052E+02 -5.26142685456E+01 -1.85405874800E+02  2.31791991873E+02  0.00000000000E+00  0.0000E+00  9.0
        1    1    4    4  504    0 -7.12305873222E+01 -4.52151170369E+00  3.84768536179E+01  8.10845786983E+01  0.00000000000E+00  0.0000E+00  9.0
       -2    1    4    4    0  504 -7.33043149281E+01  5.50339325404E+01  1.41613866112E+02  1.68691266499E+02  0.00000000000E+00  0.0000E+00  9.0
</event>
<event>
 8    1   5.1859766E+00   2.2600000E+02  -1.0000000E+00   1.0320000E-01
       11   -1    0    0    0    0  0.00000000000E+00  0.00000000000E+00  2.49975402270E+02  2.49975402270E+02  0.00000000000E+00  0.0000E+00  9.0
      -11   -1    0    0    0    0  0.00000000000E+00  0.00000000000E+00 -5.10994506090E+01  5.10994506090E+01  0.00000000000E+00  0.0000E+00  9.0
       24    2    1    2    0    0 -2.19040329575E+01 -7.41902121346E+01  9.40341785566E+01  1.45538396202E+02  7.97184031198E+01  1.0486E-15  9.0
      -24    2    1    2    0    0  2.19040329575E+01  7.41902121346E+01  1.04841773098E+02  1.55536456672E+02  8.49459694819E+01  3.1588E-15  9.0
       -3    1    3    3    0  500 -8.37677022934E+00  4.19264340538E+00  5.70555241644E+01  5.78193858137E+01  0.00000000000E+00  0.0000E+00  9.0
        4    1    3    3  500    0 -1.35272627282E+01 -7.83828555400E+01  3.69786543922E+01  8.77190103887E+01  5.87386917370E-01  0.0000E+00  9.0
       13    1    4    4    0    0  2.36278018130E+01  6.60895088941E+01  1.19565355890E+02  1.38643361565E+02  1.05700000000E-01  0.0000E+00  9.0
      -14    1    4    4    0    0 -1.72376885547E+00  8.10070324050E+00 -1.47235827919E+01  1.68930951068E+01  0.00000000000E+00  0.0000E+00  9.0
</event>
<event>
 8    1   5.1859766E+00   4.9910000E+02  -1.0000000E+00   9.3510000E-02
       11   -1    0    0    0    0  0.00000000000E+00  0.00000000000E+00  2.49138182020E+02  2.49138182020E+02  0.00000000000E+00  0.0000E+00  9.0
      -11   -1    0    0    0    0  0.00000000000E+00  0.00000000000E+00 -2.49999997880E+02  2.49999997880E+02  0.00000000000E+00  0.0000E+00  9.0
       24    2    1    2    0    0 -6.79451013953E+01  3.99234540102E+01 -2.22754752307E+02  2.49738268205E+02  8.08647262215E+01  1.9567E-13  9.0
      -24    2    1    2    0    0  6.79451013953E+01 -3.99234540102E+01  2.21892936447E+02  2.49399911692E+02  8.21792049307E+01  1.1101E-13  9.0
       -1    1    3    3    0  500 -4.08809762758E+01 -1.43949617473E+01 -4.76375444465E+01  6.44034532138E+01  0.00000000000E+00  0.0000E+00  9.0
        2    1    3    3  500    0 -2.70641251195E+01  5.43184157575E+01 -1.75117207861E+02  1.85334814991E+02  0.00000000000E+00  0.0000E+00  9.0
        1    1    4    4  504    0  3.28819663098E+01 -4.47447199466E+01  5.27339693707E+01  7.65779680919E+01  0.00000000000E+00  0.0000E+00  9.0
       -2    1    4    4    0  504  3.50631350854E+01  4.82126593641E+00  1.69158967077E+02  1.72821943600E+02  0.00000000000E+00  0.0000E+00  9.0
</event>
<event>
 8    1   5.1859766E+00   4.9940000E+02  -1.0000000E+00   9.3500000E-02
       11   -1    0    0    0    0  0.00000000000E+00  0.00000000000E+00  2.49483495750E+02  2.49483495750E+02  0.00000000000E+00  0.0000E+00  9.0
      -11   -1    0    0    0    0  0.00000000000E+00  0.00000000000E+00 -2.49901432030E+02  2.49901432030E+02  0.00000000000E+00  0.0000E+00  9.0
       24    2    1    2    0    0  1.55976292707E+00 -3.64451014171E+01 -2.34339357960E+02  2.51080226577E+02  8.24358369325E+01  2.0213E-13  9.0
      -24    2    1    2    0    0 -1.55976292707E+00  3.64451014171E+01  2.33921421680E+02  2.48304701199E+02  7.48686505757E+01  9.2423E-14  9.0
       -3    1    3    3    0  500  1.35985309438E+01 -2.37515283271E+01 -1.53247558055E+01  3.13672326194E+01  0.00000000000E+00  0.0000E+00  9.0
        4    1    3    3  500    0 -1.20387680167E+01 -1.26935730900E+01 -2.19014602155E+02  2.19712993957E+02  5.87386917370E-01  0.0000E+00  9.0
        1    1    4    4  504    0  2.93455016856E+01  2.41237691897E+01  1.86785700441E+02  1.90609581602E+02  0.00000000000E+00  0.0000E+00  9.0
       -2    1    4    4    0  504 -3.09052646127E+01  1.23213322274E+01  4.71357212393E+01  5.76951195977E+01  0.00000000000E+00  0.0000E+00  9.0
</event>
<event>
 8    1   5.1859766E+00   2.7140000E+02  -1.0000000E+00   1.0080000E-01
       11   -1    0    0    0    0  0.00000000000E+00  0.00000000000E+00  7.36523770910E+01  7.36523770910E+01  0.00000000000E+00  0.0000E+00  9.0
      -11   -1    0    0    0    0  0.00000000000E+00  0.00000000000E+00 -2.50000000000E+02  2.50000000000E+02  0.00000000000E+00  0.0000E+00  9.0
       24    2    1    2    0    0  6.72992151525E+01  3.88871759466E+01 -1.50034556638E+02  2.08749411151E+02  1.22574677879E+02  3.6092E-14  9.0
      -24    2    1    2    0    0 -6.72992151525E+01 -3.88871759466E+01 -2.63130662681E+01  1.14902965938E+02  8.04295798302E+01  1.0206E-15  9.0
       -3    1    3    3    0  500  7.02044448249E+01 -1.89999724835E+01 -3.67278602586E+01  8.14775965940E+01  0.00000000000E+00  0.0000E+00  9.0
        4    1    3    3  500    0 -2.90522967242E+00  5.78871484301E+01 -1.13306696379E+02  1.27271814557E+02  5.87386917370E-01  0.0000E+00  9.0
        3    1    4    4  504    0  7.98895469371E+00 -2.72696146552E+01 -2.63039242981E+01  3.87214632216E+01  0.00000000000E+00  0.0000E+00  9.0
       -4    1    4    4    0  504 -7.52881698462E+01 -1.16175612913E+01 -9.14197000984E-03  7.61815027163E+01  5.87386917370E-01  0.0000E+00  9.0
</event>
<event>
 8    1   5.1859766E+00   4.8960000E+02  -1.0000000E+00   9.3720000E-02
       11   -1    0    0    0    0  0.00000000000E+00  0.00000000000E+00  2.49619859510E+02  2.49619859510E+02  0.00000000000E+00  0.0000E+00  9.0
      -11   -1    0    0    0    0  0.00000000000E+00  0.00000000000E+00 -2.40060414650E+02  2.40060414650E+02  0.00000000000E+00  0.0000E+00  9.0
       24    2    1    2    0    0  2.33471373292E+00 -1.61403768835E+01 -2.26041431372E+02  2.40367822806E+02  8.00999306468E+01  9.8331E-14  9.0
      -24    2    1    2    0    0 -2.33471373292E+00  1.61403768835E+01  2.35600876232E+02  2.49312451359E+02  7.98934469596E+01  1.5301E-14  9.0
       -3    1    3    3    0  500  3.31288808904E+01 -2.38276852194E+01 -6.91176690793E+01  8.02653942302E+01  0.00000000000E+00  0.0000E+00  9.0
        4    1    3    3  500    0 -3.07941671575E+01  7.68730833593E+00 -1.56923762293E+02  1.60102428576E+02  5.87386917370E-01  0.0000E+00  9.0
       13    1    4    4    0    0  7.30387601126E-01  2.79211043122E+01  2.35488365251E+02  2.37138994839E+02  1.05700000000E-01  0.0000E+00  9.0
      -14    1    4    4    0    0 -3.06510133405E+00 -1.17807274287E+01  1.12510981547E-01  1.21734565206E+01  0.00000000000E+00  0.0000E+00  9.0
</event>
<event>
 8    1   5.1859766E+00   4.9450000E+02  -1.0000000E+00   9.3610000E-02
       11   -1    0    0    0    0  0.00000000000E+00  0.00000000000E+00  2.46911002510E+02  2.46911002510E+02  0.00000000000E+00  0.0000E+00  9.0
      -11   -1    0    0    0    0  0.00000000000E+00  0.00000000000E+00 -2.47557347640E+02  2.47557347640E+02  0.00000000000E+00  0.0000E+00  9.0
       24    2    1    2    0    0 -9.46039417961E+00 -1.57682865235E+01 -2.33705553374E+02  2.47970620477E+02  8.08270067737E+01  1.9071E-13  9.0
      -24    2    1    2    0    0  9.46039417961E+00  1.57682865235E+01  2.33059208244E+02  2.46497729672E+02  7.81434467391E+01  2.9251E-14  9.0
       -1    1    3    3    0  500 -3.40938855772E+01 -7.07455047411E+00 -4.22878969710E+01  5.47787233184E+01  0.00000000000E+00  0.0000E+00  9.0
        2    1    3    3  500    0  2.46334913976E+01 -8.69373604934E+00 -1.91417656403E+02  1.93191897159E+02  0.00000000000E+00  0.0000E+00  9.0
       13    1    4    4    0    0 -2.78695657293E+01  9.31724077829E+00  3.93099295396E+01  4.90795823389E+01  1.05700000000E-01  0.0000E+00  9.0
      -14    1    4    4    0    0  3.73299599089E+01  6.45104574516E+00  1.93749278704E+02  1.97418147333E+02  0.00000000000E+00  0.0000E+00  9.0
</event>
<event>
 8    1   5.1859766E+00   5.0000000E+02  -1.0000000E+00   9.3490000E-02
       11   -1    0    0    0    0  0.00000000000E+00  0.00000000000E+00  2.49994812440E+02  2.49994812440E+02  0.00000000000E+00  0.0000E+00  9.0
      -11   -1    0    0    0    0  0.00000000000E+00  0.00000000000E+00 -2.49999582090E+02  2.49999582090E+02  0.00000000000E+00  0.0000E+00  9.0
       24    2    1    2    0    0  1.84154306466E+02 -1.02408356505E+02 -1.13619133152E+02  2.52652983299E+02  8.07709259569E+01  1.6041E-13  9.0
      -24    2    1    2    0    0 -1.84154306466E+02  1.02408356505E+02  1.13614363502E+02  2.47341411238E+02  6.22034568745E+01  8.9320E-15  9.0
       -3    1    3    3    0  500  4.32366458276E+01 -1.98028375301E+01 -6.81404262515E+01  8.30943897408E+01  0.00000000000E+00  0.0000E+00  9.0
        4    1    3    3  500    0  1.40917660638E+02 -8.26055189747E+01 -4.54787069007E+01  1.69558593558E+02  5.87386917370E-01  0.0000E+00  9.0
        1    1    4    4  504    0 -9.89825370108E+01  5.88044328792E+01  9.63122121027E+01  1.50105117033E+02  0.00000000000E+00  0.0000E+00  9.0
       -2    1    4    4    0  504 -8.51717694548E+01  4.36039236256E+01  1.73021513995E+01  9.72362942047E+01  0.00000000000E+00  0.0000E+00  9.0
</event>
<event>
 8    1   5.1859766E+00   2.5440000E+02  -1.0000000E+00   1.0160000E-01
       11   -1    0    0    0    0  0.00000000000E+00  0.00000000000E+00  6.47280167600E+01  6.47280167600E+01  0.00000000000E+00  0.0000E+00  9.0
      -11   -1    0    0    0    0  0.00000000000E+00  0.00000000000E+00 -2.49999988940E+02  2.49999988940E+02  0.00000000000E+00  0.0000E+00  9.0
       24    2    1    2    0    0 -3.99659837432E+01  1.17012171967E+01 -2.03757031217E+02  2.22686008170E+02  7.96111306514E+01  1.6803E-14  9.0
      -24    2    1    2    0    0  3.99659837432E+01 -1.17012171967E+01  1.84850590374E+01  9.20419975313E+01  7.99739555198E+01  2.5450E-13  9.0
       -1    1    3    3    0  500  1.55086294829E+01  2.66933226754E+01 -5.28209506102E+01  6.11809111346E+01  0.00000000000E+00  0.0000E+00  9.0
        2    1    3    3  500    0 -5.54746132261E+01 -1.49921054787E+01 -1.50936080607E+02  1.61505097035E+02  0.00000000000E+00  0.0000E+00  9.0
        1    1    4    4  504    0 -1.83139005153E+01 -6.48859879092E+00 -1.50719004160E+01  2.45898972854E+01  0.00000000000E+00  0.0000E+00  9.0
       -2    1    4    4    0  504  5.82798842585E+01 -5.21261840579E+00  3.35569594534E+01  6.74521002459E+01  0.00000000000E+00  0.0000E+00  9.0
</event>
<event>
 8    1   5.1859766E+00   2.6460000E+02  -1.0000000E+00   1.0110000E-01
       11   -1    0    0    0    0  0.00000000000E+00  0.00000000000E+00  1.67389388630E+02  1.67389388630E+02  0.00000000000E+00  0.0000E+00  9.0
      -11   -1    0    0    0    0  0.00000000000E+00  0.00000000000E+00 -1.04578019890E+02  1.04578019890E+02  0.00000000000E+00  0.0000E+00  9.0
       24    2    1    2    0    0  1.00686689120E+01 -4.25934276036E+01 -6.69334414753E+01  1.13395607003E+02  8.03921633689E+01  3.4577E-14  9.0
      -24    2    1    2    0    0 -1.00686689120E+01  4.25934276036E+01  1.29744810213E+02  1.58571801509E+02  7.99732598291E+01  7.7808E-14  9.0
       -3    1    3    3    0  500  3.70328252953E+01 -2.45492068482E+01 -6.76520818461E+01  8.09376172391E+01  0.00000000000E+00  0.0000E+00  9.0
        4    1    3    3  500    0 -2.69641563833E+01 -1.80442207554E+01  7.18640370772E-01  3.24579897638E+01  5.87386917370E-01  0.0000E+00  9.0
        3    1    4    4  504    0 -1.21361007284E+01  1.03253412179E+01 -7.46946337238E+00  1.75980253218E+01  0.00000000000E+00  0.0000E+00  9.0
       -4    1    4    4    0  504  2.06743181635E+00  3.22680863858E+01  1.37214273586E+02  1.40973776187E+02  5.87386917370E-01  0.0000E+00  9.0
</event>
<event>
 8    1   5.1859766E+00   3.1330000E+02  -1.0000000E+00   9.8970000E-02
       11   -1    0    0    0    0  0.00000000000E+00  0.00000000000E+00  2.49318617860E+02  2.49318617860E+02  0.00000000000E+00  0.0000E+00  9.0
      -11   -1    0    0    0    0  0.00000000000E+00  0.00000000000E+00 -9.84126859660E+01  9.84126859660E+01  0.00000000000E+00  0.0000E+00  9.0
       24    2    1    2    0    0 -5.19338615017E+01  5.99276969097E+01 -3.08009427372E+01  1.33890032916E+02  1.03389496630E+02  2.2113E-13  9.0
      -24    2    1    2    0    0  5.19338615017E+01 -5.99276969097E+01  1.81706874627E+02  2.13841270907E+02  8.01389170694E+01  2.0721E-14  9.0
       -3    1    3    3    0  500 -3.17446286833E+01 -2.58181738439E+01 -1.86333252367E+01  4.49610982990E+01  0.00000000000E+00  0.0000E+00  9.0
        4    1    3    3  500    0 -2.01892328184E+01  8.57458707536E+01 -1.21676175005E+01  8.89289346171E+01  5.87386917370E-01  0.0000E+00  9.0
        1    1    4    4  504    0 -4.79058925916E+00 -9.08344487103E+00  1.05817155636E+02  1.06314294162E+02  0.00000000000E+00  0.0000E+00  9.0
       -2    1    4    4    0  504  5.67244507609E+01 -5.08442520387E+01  7.58897189911E+01  1.07526976746E+02  0.00000000000E+00  0.0000E+00  9.0
</event>
<event>
 8    1   5.1859766E+00   4.9920000E+02  -1.0000000E+00   9.3510000E-02
       11   -1    0    0    0    0  0.00000000000E+00  0.00000000000E+00  2.50000000000E+02  2.50000000000E+02  0.00000000000E+00  0.0000E+00  9.0
      -11   -1    0    0    0    0  0.00000000000E+00  0.00000000000E+00 -2.49218539330E+02  2.49218539330E+02  0.00000000000E+00  0.0000E+00  9.0
       24    2    1    2    0    0 -1.28978943057E+01 -2.10210047481E+02  1.08369702481E+02  2.49951392906E+02  7.98566632192E+01  1.6373E-13  9.0
      -24    2    1    2    0    0  1.28978943057E+01  2.10210047481E+02 -1.07588241811E+02  2.49267146430E+02  7.87671300354E+01  2.5853E-14  9.0
       -1    1    3    3    0  500  3.26137339144E+01 -6.45398015207E+01  4.10229545256E+01  8.31379842081E+01  0.00000000000E+00  0.0000E+00  9.0
        2    1    3    3  500    0 -4.55116282201E+01 -1.45670245960E+02  6.73467479554E+01  1.66813408698E+02  0.00000000000E+00  0.0000E+00  9.0
        3    1    4    4  504    0  1.31916421793E+00  3.30683346800E+01  1.20220374181E+01  3.52105713732E+01  0.00000000000E+00  0.0000E+00  9.0
       -4    1    4    4    0  504  1.15787300877E+01  1.77141712801E+02 -1.19610279229E+02  2.14056575057E+02  5.87386917370E-01  0.0000E+00  9.0
</event>
<event>
 8    1   5.1859766E+00   2.5250000E+02  -1.0000000E+00   1.0170000E-01
       11   -1    0    0    0    0  0.00000000000E+00  0.00000000000E+00  2.49999999990E+02  2.49999999990E+02  0.00000000000E+00  0.0000E+00  9.0
      -11   -1    0    0    0    0  0.00000000000E+00  0.00000000000E+00 -6.37342571220E+01  6.37342571220E+01  0.00000000000E+00  0.0000E+00  9.0
       24    2    1    2    0    0  3.61538638749E+01  7.50861064549E+01  1.55891418841E+02  1.94172568342E+02  8.03481584896E+01  2.0954E-14  9.0
      -24    2    1    2    0    0 -3.61538638749E+01 -7.50861064549E+01  3.03743240357E+01  1.19561688779E+02  8.01708962621E+01  6.7418E-14  9.0
       -1    1    3    3    0  500  1.77959163290E+01  2.34951560729E+01  5.68627088847E-01  2.94794900507E+01  0.00000000000E+00  0.0000E+00  9.0
        2    1    3    3  500    0  1.83579475459E+01  5.15909503820E+01  1.55322791752E+02  1.64693078292E+02  0.00000000000E+00  0.0000E+00  9.0
        3    1    4    4  504    0 -5.38004544010E+01 -7.99392163282E+01  3.10538717820E+01  1.01237888923E+02  0.00000000000E+00  0.0000E+00  9.0
       -4    1    4    4    0  504  1.76465905262E+01  4.85310987330E+00 -6.79547746324E-01  1.83237998562E+01  5.87386917370E-01  0.0000E+00  9.0
</event>
<event>
 8    1   5.1859766E+00   4.9050000E+02  -1.0000000E+00   9.3700000E-02
       11   -1    0    0    0    0  0.00000000000E+00  0.00000000000E+00  2.49999437500E+02  2.49999437500E+02  0.00000000000E+00  0.0000E+00  9.0
      -11   -1    0    0    0    0  0.00000000000E+00  0.00000000000E+00 -2.40632884750E+02  2.40632884750E+02  0.00000000000E+00  0.0000E+00  9.0
       24    2    1    2    0    0  1.39274103292E+02  8.39502702147E+01  1.69298437406E+02  2.48598929642E+02  8.18201881797E+01  9.9414E-14  9.0
      -24    2    1    2    0    0 -1.39274103292E+02 -8.39502702147E+01 -1.59931884646E+02  2.42033392612E+02  8.09755005895E+01  1.3904E-13  9.0
       -3    1    3    3    0  500 -5.67733744647E+00  2.19724154444E+01  3.38628310680E+01  4.07640838102E+01  0.00000000000E+00  0.0000E+00  9.0
        4    1    3    3  500    0  1.44951440739E+02  6.19778547703E+01  1.35435606338E+02  2.07834845832E+02  5.87386917370E-01  0.0000E+00  9.0
        1    1    4    4  504    0 -1.42828171860E+02 -7.53253632027E+01 -1.20410841968E+02  2.01426333635E+02  0.00000000000E+00  0.0000E+00  9.0
       -2    1    4    4    0  504  3.55406856714E+00 -8.62490701200E+00 -3.95210426784E+01  4.06070589766E+01  0.00000000000E+00  0.0000E+00  9.0
</event>
<event>
 8    1   5.1859766E+00   4.8570000E+02  -1.0000000E+00   9.3810000E-02
       11   -1    0    0    0    0  0.00000000000E+00  0.00000000000E+00  2.49999900490E+02  2.49999900490E+02  0.00000000000E+00  0.0000E+00  9.0
      -11   -1    0    0    0    0  0.00000000000E+00  0.00000000000E+00 -2.35919415110E+02  2.35919415110E+02  0.00000000000E+00  0.0000E+00  9.0
       24    2    1    2    0    0 -3.34679158264E+01 -1.27127752129E+02 -1.81047005726E+02  2.35977532539E+02  7.50054053361E+01  2.9066E-14  9.0
      -24    2    1    2    0    0  3.34679158264E+01  1.27127752129E+02  1.95127491116E+02  2.49941783057E+02  8.43480312611E+01  1.0964E-13  9.0
       -1    1    3    3    0  500  1.77168700638E+01 -1.92282073542E+01 -1.14287977888E+01  2.85346957547E+01  0.00000000000E+00  0.0000E+00  9.0
        2    1    3    3  500    0 -5.11847858902E+01 -1.07899544775E+02 -1.69618207937E+02  2.07442836784E+02  0.00000000000E+00  0.0000E+00  9.0
        3    1    4    4  504    0 -2.16637059614E+01  1.39902905998E+01  1.38918934499E+01  2.92921335971E+01  0.00000000000E+00  0.0000E+00  9.0
       -4    1    4    4    0  504  5.51316217878E+01  1.13137461529E+02  1.81235597666E+02  2.20649649460E+02  5.87386917370E-01  0.0000E+00  9.0
</event>
<event>
 8    1   5.1859766E+00   4.9360000E+02  -1.0000000E+00   9.3630000E-02
       11   -1    0    0    0    0  0.00000000000E+00  0.00000000000E+00  2.49999999990E+02  2.49999999990E+02  0.00000000000E+00  0.0000E+00  9.0
      -11   -1    0    0    0    0  0.00000000000E+00  0.00000000000E+00 -2.43659271520E+02  2.43659271520E+02  0.00000000000E+00  0.0000E+00  9.0
       24    2    1    2    0    0  1.29925237292E+01 -4.31886682090E-02 -2.30139534319E+02  2.44151446562E+02  8.04792896580E+01  8.7500E-14  9.0
      -24    2    1    2    0    0 -1.29925237292E+01  4.31886682090E-02  2.36480262779E+02  2.49507824950E+02  7.85011623413E+01  7.3277E-15  9.0
       -1    1    3    3    0  500 -8.36576153848E+00  2.74233571738E+01 -3.19384148974E+01  4.29195623342E+01  0.00000000000E+00  0.0000E+00  9.0
        2    1    3    3  500    0  2.13582852677E+01 -2.74665458420E+01 -1.98201119422E+02  2.01231884228E+02  0.00000000000E+00  0.0000E+00  9.0
       13    1    4    4    0    0  1.92768172312E+01 -8.22395713405E+00  1.95847427779E+02  1.96965619573E+02  1.05700000000E-01  0.0000E+00  9.0
      -14    1    4    4    0    0 -3.22693409604E+01  8.26714580226E+00  4.06328350001E+01  5.25422053770E+01  0.00000000000E+00  0.0000E+00  9.0
</event>
<event>
 8    1   5.1859766E+00   4.9980000E+02  -1.0000000E+00   9.3500000E-02
       11   -1    0    0    0    0  0.00000000000E+00  0.00000000000E+00  2.49926808900E+02  2.49926808900E+02  0.00000000000E+00  0.0000E+00  9.0
      -11   -1    0    0    0    0  0.00000000000E+00  0.00000000000E+00 -2.49849895730E+02  2.49849895730E+02  0.00000000000E+00  0.0000E+00  9.0
       24    2    1    2    0    0  2.42378263615E+01 -9.51070281153E+00 -2.35290923147E+02  2.49918111952E+02  8.01206494689E+01  1.0537E-14  9.0
      -24    2    1    2    0    0 -2.42378263615E+01  9.51070281153E+00  2.35367836317E+02  2.49858592677E+02  7.97080439289E+01  8.5725E-15  9.0
       -3    1    3    3    0  500  2.91480255250E+01 -3.24024182005E+01 -6.64961048236E+01  7.95063271316E+01  0.00000000000E+00  0.0000E+00  9.0
        4    1    3    3  500    0 -4.91019916347E+00  2.28917153890E+01 -1.68794818324E+02  1.70411784820E+02  5.87386917370E-01  0.0000E+00  9.0
        3    1    4    4  504    0 -5.01559547230E+01  9.23731050232E+00  1.97412058547E+02  2.03893277377E+02  0.00000000000E+00  0.0000E+00  9.0
       -4    1    4    4    0  504  2.59181283615E+01  2.73392309214E-01  3.79557777701E+01  4.59653153002E+01  5.87386917370E-01  0.0000E+00  9.0
</event>
<event>
 8    1   5.1859766E+00   4.9580000E+02  -1.0000000E+00   9.3580000E-02
       11   -1    0    0    0    0  0.00000000000E+00  0.00000000000E+00  2.45785780150E+02  2.45785780150E+02  0.00000000000E+00  0.0000E+00  9.0
      -11   -1    0    0    0    0  0.00000000000E+00  0.00000000000E+00 -2.49999976050E+02  2.49999976050E+02  0.00000000000E+00  0.0000E+00  9.0
       24    2    1    2    0    0 -1.25816626299E+02 -2.95089812265E+00 -2.00265926318E+02  2.49830847651E+02  8.04392935123E+01  5.4097E-15  9.0
      -24    2    1    2    0    0  1.25816626299E+02  2.95089812265E+00  1.96051730418E+02  2.45954908562E+02  7.88606669540E+01  6.1576E-15  9.0
      -13    1    3    3    0    0 -2.07899779863E+01  2.16429068032E+01 -9.29409942692E+01  9.76661568190E+01  1.05700000000E-01  0.0000E+00  9.0
       14    1    3    3    0    0 -1.05026648313E+02 -2.45938049259E+01 -1.07324932049E+02  1.52164690832E+02  0.00000000000E+00  0.0000E+00  9.0
        1    1    4    4  500    0  8.25948427794E+01  3.90187308571E+01  1.33988238655E+02  1.62164168389E+02  0.00000000000E+00  0.0000E+00  9.0
       -2    1    4    4    0  500  4.32217835201E+01 -3.60678327344E+01  6.20634917634E+01  8.37907401727E+01  0.00000000000E+00  0.0000E+00  9.0
</event>
<event>
 8    1   5.1859766E+00   4.9940000E+02  -1.0000000E+00   9.3500000E-02
       11   -1    0    0    0    0  0.00000000000E+00  0.00000000000E+00  2.49449874950E+02  2.49449874950E+02  0.00000000000E+00  0.0000E+00  9.0
      -11   -1    0    0    0    0  0.00000000000E+00  0.00000000000E+00 -2.50000000000E+02  2.50000000000E+02  0.00000000000E+00  0.0000E+00  9.0
       24    2    1    2    0    0 -1.11655523069E+01  6.05947290888E+01 -2.29860749418E+02  2.48990108519E+02  7.32374171121E+01  2.3904E-13  9.0
      -24    2    1    2    0    0  1.11655523069E+01 -6.05947290888E+01  2.29310624368E+02  2.50459766437E+02  7.96890293817E+01  4.3264E-14  9.0
       -3    1    3    3    0  500  1.89493477467E+01  1.07398339652E+01 -1.41445555042E+02  1.43112776700E+02  0.00000000000E+00  0.0000E+00  9.0
        4    1    3    3  500    0 -3.01149000537E+01  4.98548951236E+01 -8.84151943765E+01  1.05877331819E+02  5.87386917370E-01  0.0000E+00  9.0
        3    1    4    4  504    0 -2.03793254497E+01  5.02591634200E+00  9.88701542776E+01  1.01073657041E+02  0.00000000000E+00  0.0000E+00  9.0
       -4    1    4    4    0  504  3.15448777567E+01 -6.56206454308E+01  1.30440470091E+02  1.49386109396E+02  5.87386917370E-01  0.0000E+00  9.0
</event>
<event>
 8    1   5.1859766E+00   4.9030000E+02  -1.0000000E+00   9.3710000E-02
       11   -1    0    0    0    0  0.00000000000E+00  0.00000000000E+00  2.49999999970E+02  2.49999999970E+02  0.00000000000E+00  0.0000E+00  9.0
      -11   -1    0    0    0    0  0.00000000000E+00  0.00000000000E+00 -2.40407100510E+02  2.40407100510E+02  0.00000000000E+00  0.0000E+00  9.0
       24    2    1    2    0    0 -1.94016894613E+01 -1.25432352767E+02 -1.93474085913E+02  2.44880096958E+02  8.01519762176E+01  1.5490E-14  9.0
      -24    2    1    2    0    0  1.94016894613E+01  1.25432352767E+02  2.03066985373E+02  2.45527003526E+02  5.41997069849E+01  1.6867E-13  9.0
       -1    1    3    3    0  500  1.00881226400E+01 -6.28769537244E+01 -1.50600281266E+02  1.63510630375E+02  0.00000000000E+00  0.0000E+00  9.0
        2    1    3    3  500    0 -2.94898121013E+01 -6.25553990426E+01 -4.28738046471E+01  8.13694665834E+01  0.00000000000E+00  0.0000E+00  9.0
        3    1    4    4  504    0  3.29290557654E+01  4.51598055414E+01  7.05927032817E+01  9.00392164935E+01  0.00000000000E+00  0.0000E+00  9.0
       -4    1    4    4    0  504 -1.35273663041E+01  8.02725472256E+01  1.32474282091E+02  1.55487787032E+02  5.87386917370E-01  0.0000E+00  9.0
</event>
<event>
 8    1   5.1859766E+00   4.7690000E+02  -1.0000000E+00   9.4020000E-02
       11   -1    0    0    0    0  0.00000000000E+00  0.00000000000E+00  2.49978913130E+02  2.49978913130E+02  0.00000000000E+00  0.0000E+00  9.0
      -11   -1    0    0    0    0  0.00000000000E+00  0.00000000000E+00 -2.27492967050E+02  2.27492967050E+02  0.00000000000E+00  0.0000E+00  9.0
       24    2    1    2    0    0 -2.54820962688E+01 -4.44487708260E+01 -2.09091979581E+02  2.30547520750E+02  8.25086234312E+01  1.4088E-14  9.0
      -24    2    1    2    0    0  2.54820962688E+01  4.44487708260E+01  2.31577925671E+02  2.46924359426E+02  6.86896874479E+01  8.3885E-16  9.0
       -1    1    3    3    0  500  1.27767377256E+01 -8.75332713524E+00 -5.03020759386E-01  1.54957669294E+01  0.00000000000E+00  0.0000E+00  9.0
        2    1    3    3  500    0 -3.82588339943E+01 -3.56954436908E+01 -2.08588958822E+02  2.15051753820E+02  0.00000000000E+00  0.0000E+00  9.0
        1    1    4    4  504    0 -1.40563203233E+01 -1.08040654307E+01  5.02243027020E+01  5.32615109883E+01  0.00000000000E+00  0.0000E+00  9.0
       -2    1    4    4    0  504  3.95384165921E+01  5.52528362567E+01  1.81353622969E+02  1.93662848438E+02  0.00000000000E+00  0.0000E+00  9.0
</event>
<event>
 8    1   5.1859766E+00   3.0370000E+02  -1.0000000E+00   9.9360000E-02
       11   -1    0    0    0    0  0.00000000000E+00  0.00000000000E+00  2.41773493280E+02  2.41773493280E+02  0.00000000000E+00  0.0000E+00  9.0
      -11   -1    0    0    0    0  0.00000000000E+00  0.00000000000E+00 -9.53564098150E+01  9.53564098150E+01  0.00000000000E+00  0.0000E+00  9.0
       24    2    1    2    0    0 -6.31858557451E+00  1.91533254654E+01 -7.18653710519E+01  1.10900331810E+02  8.20212023750E+01  1.0266E-13  9.0
      -24    2    1    2    0    0  6.31858557451E+00 -1.91533254654E+01  2.18282454516E+02  2.26229571283E+02  5.59089847292E+01  6.8751E-14  9.0
       -3    1    3    3    0  500  4.76118791550E-01 -2.36847362554E+01  3.49651441121E+00  2.39461694979E+01  0.00000000000E+00  0.0000E+00  9.0
        4    1    3    3  500    0 -6.79470436606E+00  4.28380617208E+01 -7.53618854632E+01  8.69541623119E+01  5.87386917370E-01  0.0000E+00  9.0
       13    1    4    4    0    0  7.48097293538E+00  1.75752252956E+01  4.17372351926E+01  4.59005607184E+01  1.05700000000E-01  0.0000E+00  9.0
      -14    1    4    4    0    0 -1.16238736087E+00 -3.67285507609E+01  1.76545219323E+02  1.80329010565E+02  0.00000000000E+00  0.0000E+00  9.0
</event>
<event>
 8    1   5.1859766E+00   4.5650000E+02  -1.0000000E+00   9.4510000E-02
       11   -1    0    0    0    0  0.00000000000E+00  0.00000000000E+00  2.19420876700E+02  2.19420876700E+02  0.00000000000E+00  0.0000E+00  9.0
      -11   -1    0    0    0    0  0.00000000000E+00  0.00000000000E+00 -2.37411102410E+02  2.37411102410E+02  0.00000000000E+00  0.0000E+00  9.0
       24    2    1    2    0    0 -1.23715795619E+01  1.33436210955E+01 -2.24345979440E+02  2.35081358675E+02  6.78308079016E+01  2.2937E-14  9.0
      -24    2    1    2    0    0  1.23715795619E+01 -1.33436210955E+01  2.06355753740E+02  2.21750620436E+02  7.91172064541E+01  2.7889E-14  9.0
       -1    1    3    3    0  500 -3.57747230374E+01 -8.71724794121E+00 -1.41475172105E+02  1.46188390586E+02  0.00000000000E+00  0.0000E+00  9.0
        2    1    3    3  500    0  2.34031434755E+01  2.20608690367E+01 -8.28708073349E+01  8.88929680882E+01  0.00000000000E+00  0.0000E+00  9.0
        3    1    4    4  504    0  1.17181174425E+01  2.98369370763E+01  1.31292480952E+02  1.35149075635E+02  0.00000000000E+00  0.0000E+00  9.0
       -4    1    4    4    0  504  6.53462119376E-01 -4.31805581718E+01  7.50632727881E+01  8.66015448004E+01  5.87386917370E-01  0.0000E+00  9.0
</event>
<event>
 8    1   5.1859766E+00   4.8700000E+02  -1.0000000E+00   9.3780000E-02
       11   -1    0    0    0    0  0.00000000000E+00  0.00000000000E+00  2.47768636160E+02  2.47768636160E+02  0.00000000000E+00  0.0000E+00  9.0
      -11   -1    0    0    0    0  0.00000000000E+00  0.00000000000E+00 -2.39295187660E+02  2.39295187660E+02  0.00000000000E+00  0.0000E+00  9.0
       24    2    1    2    0    0 -2.15987554657E+02  1.39177249534E+01 -7.66265917654E+01  2.43520045212E+02  8.11544885980E+01  1.3553E-14  9.0
      -24    2    1    2    0    0  2.15987554657E+02 -1.39177249534E+01  8.51000402614E+01  2.43543778618E+02  7.22995741076E+01  1.8409E-13  9.0
       -3    1    3    3    0  500 -1.45441979535E+02 -2.93614367015E+01 -4.81780676980E+01  1.56001889679E+02  0.00000000000E+00  0.0000E+00  9.0
        4    1    3    3  500    0 -7.05455751224E+01  4.32791616549E+01 -2.84485240674E+01  8.75181555331E+01  5.87386917370E-01  0.0000E+00  9.0
        1    1    4    4  504    0  2.44714428987E+01 -2.56947868032E+01  2.10530154722E+01  4.12589753494E+01  0.00000000000E+00  0.0000E+00  9.0
       -2    1    4    4    0  504  1.91516111759E+02  1.17770618498E+01  6.40470247892E+01  2.02284803268E+02  0.00000000000E+00  0.0000E+00  9.0
</event>
<event>
 8    1   5.1859766E+00   4.8910000E+02  -1.0000000E+00   9.3730000E-02
       11   -1    0    0    0    0  0.00000000000E+00  0.00000000000E+00  2.40111216410E+02  2.40111216410E+02  0.00000000000E+00  0.0000E+00  9.0
      -11   -1    0    0    0    0  0.00000000000E+00  0.00000000000E+00 -2.49112207690E+02  2.49112207690E+02  0.00000000000E+00  0.0000E+00  9.0
       24    2    1    2    0    0 -1.19454772670E+02  2.33843523653E+01 -2.01131506216E+02  2.48351568221E+02  8.00521579708E+01  2.2029E-13  9.0
      -24    2    1    2    0    0  1.19454772670E+02 -2.33843523653E+01  1.92130514936E+02  2.40871855877E+02  7.93022416766E+01  6.7254E-15  9.0
       -1    1    3    3    0  500 -6.51289658051E+01 -2.72419437089E+01 -1.11296441237E+02  1.31798344132E+02  0.00000000000E+00  0.0000E+00  9.0
        2    1    3    3  500    0 -5.43258068651E+01  5.06262960742E+01 -8.98350649782E+01  1.16553224088E+02  0.00000000000E+00  0.0000E+00  9.0
        3    1    4    4  504    0  1.07308652882E+02 -2.93439072393E+00  1.03551507355E+02  1.49153184035E+02  0.00000000000E+00  0.0000E+00  9.0
       -4    1    4    4    0  504  1.21461197879E+01 -2.04499616414E+01  8.85790075811E+01  9.17186718421E+01  5.87386917370E-01  0.0000E+00  9.0
</event>
<event>
 8    1   5.1859766E+00   3.7930000E+02  -1.0000000E+00   9.6650000E-02
       11   -1    0    0    0    0  0.00000000000E+00  0.00000000000E+00  1.44763868510E+02  1.44763868510E+02  0.00000000000E+00  0.0000E+00  9.0
      -11   -1    0    0    0    0  0.00000000000E+00  0.00000000000E+00 -2.48478034990E+02  2.48478034990E+02  0.00000000000E+00  0.0000E+00  9.0
       24    2    1    2    0    0  3.37762689234E+01 -4.11768525483E+01 -2.20313705828E+02  2.42128200304E+02  8.51561323617E+01  3.5478E-13  9.0
      -24    2    1    2    0    0 -3.37762689234E+01  4.11768525483E+01  1.16599539358E+02  1.51113703196E+02  8.00220543781E+01  4.5479E-14  9.0
      -13    1    3    3    0    0 -1.90043831715E+01  1.42142713136E+01 -5.88010327343E+01  6.34096578749E+01  1.05700000000E-01  0.0000E+00  9.0
       14    1    3    3    0    0  5.27806520949E+01 -5.53911238618E+01 -1.61512673094E+02  1.78718542429E+02  0.00000000000E+00  0.0000E+00  9.0
        3    1    4    4  500    0 -3.06082704804E+01  4.38642899276E+01  2.43513497545E+01  5.87701487792E+01  0.00000000000E+00  0.0000E+00  9.0
       -4    1    4    4    0  500 -3.16799844300E+00 -2.68743737935E+00  9.22481896034E+01  9.23435544166E+01  5.87386917370E-01  0.0000E+00  9.0
</event>
<event>
 8    1   5.1859766E+00   5.0000000E+02  -1.0000000E+00   9.3490000E-02
       11   -1    0    0    0    0  0.00000000000E+00  0.00000000000E+00  2.50000000000E+02  2.50000000000E+02  0.00000000000E+00  0.0000E+00  9.0
      -11   -1    0    0    0    0  0.00000000000E+00  0.00000000000E+00 -2.49999157530E+02  2.49999157530E+02  0.00000000000E+00  0.0000E+00  9.0
       24    2    1    2    0    0 -1.48165467749E+01 -7.26186308510E-01 -2.37313282299E+02  2.49415376197E+02  7.53019157988E+01  6.6056E-14  9.0
      -24    2    1    2    0    0  1.48165467749E+01  7.26186308510E-01  2.37314124769E+02  2.50583781327E+02  7.90833752696E+01  4.6970E-14  9.0
       -1    1    3    3    0  500 -9.61831025519E+00  3.47550451135E+01 -7.54169159250E+01  8.35950731840E+01  0.00000000000E+00  0.0000E+00  9.0
        2    1    3    3  500    0 -5.19823651971E+00 -3.54812314220E+01 -1.61896366374E+02  1.65820303013E+02  0.00000000000E+00  0.0000E+00  9.0
       13    1    4    4    0    0 -2.93829424641E+01  1.57689971750E+01  8.63834334170E+01  9.25965837445E+01  1.05700000000E-01  0.0000E+00  9.0
      -14    1    4    4    0    0  4.41994892390E+01 -1.50428108665E+01  1.50930691352E+02  1.57987197582E+02  0.00000000000E+00  0.0000E+00  9.0
</event>
<event>
 8    1   5.1859766E+00   5.0000000E+02  -1.0000000E+00   9.3490000E-02
       11   -1    0    0    0    0  0.00000000000E+00  0.00000000000E+00  2.49999999950E+02  2.49999999950E+02  0.00000000000E+00  0.0000E+00  9.0
      -11   -1    0    0    0    0  0.00000000000E+00  0.00000000000E+00 -2.49999608820E+02  2.49999608820E+02  0.00000000000E+00  0.0000E+00  9.0
       24    2    1    2    0    0  9.75766703808E+00 -1.16322257383E+00 -2.36259821587E+02  2.49931721098E+02  8.09357570036E+01  2.2997E-13  9.0
      -24    2    1    2    0    0 -9.75766703808E+00  1.16322257383E+00  2.36260212707E+02  2.50067887667E+02  8.13541343815E+01  1.2885E-14  9.0
       -3    1    3    3    0  500 -2.58874333270E+00 -3.46427984866E+01 -1.79894647590E+02  1.83218201363E+02  0.00000000000E+00  0.0000E+00  9.0
        4    1    3    3  500    0  1.23464103708E+01  3.34795759127E+01 -5.63651739973E+01  6.67135197353E+01  5.87386917370E-01  0.0000E+00  9.0
        1    1    4    4  504    0  1.18101664996E+01 -8.91166084429E+00  2.21636899256E+02  2.22130170944E+02  0.00000000000E+00  0.0000E+00  9.0
       -2    1    4    4    0  504 -2.15678335377E+01  1.00748834181E+01  1.46233134510E+01  2.79377167228E+01  0.00000000000E+00  0.0000E+00  9.0
</event>
<event>
 8    1   5.1859766E+00   5.0000000E+02  -1.0000000E+00   9.3490000E-02
       11   -1    0    0    0    0  0.00000000000E+00  0.00000000000E+00  2.49999992720E+02  2.49999992720E+02  0.00000000000E+00  0.0000E+00  9.0
      -11   -1    0    0    0    0  0.00000000000E+00  0.00000000000E+00 -2.49996540260E+02  2.49996540260E+02  0.00000000000E+00  0.0000E+00  9.0
       24    2    1    2    0    0 -1.05980420579E+01  3.57453880468E+01 -2.33203251936E+02  2.48979861119E+02  7.88489902734E+01  3.5058E-14  9.0
      -24    2    1    2    0    0  1.05980420579E+01 -3.57453880468E+01  2.33206704406E+02  2.51016671865E+02  8.50526384782E+01  1.9255E-13  9.0
       -3    1    3    3    0  500  3.22421380550E+01  1.77744274012E+01 -1.41067636350E+02  1.45792879665E+02  0.00000000000E+00  0.0000E+00  9.0
        4    1    3    3  500    0 -4.28401801129E+01  1.79709606456E+01 -9.21356155861E+01  1.03186981453E+02  5.87386917370E-01  0.0000E+00  9.0
        1    1    4    4  504    0  1.46129129203E+01 -6.32407224863E+01  1.56136568578E+02  1.69090373031E+02  0.00000000000E+00  0.0000E+00  9.0
       -2    1    4    4    0  504 -4.01487086239E+00  2.74953344395E+01  7.70701358283E+01  8.19262988336E+01  0.00000000000E+00  0.0000E+00  9.0
</event>
<event>
 8    1   5.1859766E+00   3.5950000E+02  -1.0000000E+00   9.7290000E-02
       11   -1    0    0    0    0  0.00000000000E+00  0.00000000000E+00  1.35088469520E+02  1.35088469520E+02  0.00000000000E+00  0.0000E+00  9.0
      -11   -1    0    0    0    0  0.00000000000E+00  0.00000000000E+00 -2.39206699470E+02  2.39206699470E+02  0.00000000000E+00  0.0000E+00  9.0
       24    2    1    2    0    0 -1.51649140361E+02  1.12478045319E+01 -1.11729140505E+02  2.01567702512E+02  7.08672207653E+01  7.5101E-14  9.0
      -24    2    1    2    0    0  1.51649140361E+02 -1.12478045319E+01  7.61091055102E+00  1.72727466491E+02  8.15651692952E+01  1.1581E-13  9.0
       -1    1    3    3    0  500 -6.64794996634E+01  2.83324384257E+01 -8.30516878679E+01  1.10090116724E+02  0.00000000000E+00  0.0000E+00  9.0
        2    1    3    3  500    0 -8.51696406973E+01 -1.70846338938E+01 -2.86774526371E+01  9.14775857877E+01  0.00000000000E+00  0.0000E+00  9.0
        3    1    4    4  504    0  9.78094553098E+01 -8.91462485087E+00  4.40813328810E+01  1.07653722615E+02  0.00000000000E+00  0.0000E+00  9.0
       -4    1    4    4    0  504  5.38396850508E+01 -2.33317968107E+00 -3.64704223299E+01  6.50737438766E+01  5.87386917370E-01  0.0000E+00  9.0
</event>
<event>
 8    1   5.1859766E+00   4.9920000E+02  -1.0000000E+00   9.3510000E-02
       11   -1    0    0    0    0  0.00000000000E+00  0.00000000000E+00  2.49966154030E+02  2.49966154030E+02  0.00000000000E+00  0.0000E+00  9.0
      -11   -1    0    0    0    0  0.00000000000E+00  0.00000000000E+00 -2.49259748670E+02  2.49259748670E+02  0.00000000000E+00  0.0000E+00  9.0
       24    2    1    2    0    0 -6.49957625532E+01  4.65338476329E+01 -2.21608216220E+02  2.49336967438E+02  8.16631722978E+01  1.7413E-14  9.0
      -24    2    1    2    0    0  6.49957625532E+01 -4.65338476329E+01  2.22314621590E+02  2.49888935264E+02  8.14299752519E+01  9.2427E-14  9.0
       -3    1    3    3    0  500 -4.16935358903E+01  6.04728002695E+01 -9.62802237883E+01  1.21099925682E+02  0.00000000000E+00  0.0000E+00  9.0
        4    1    3    3  500    0 -2.33022266630E+01 -1.39389526366E+01 -1.25327992432E+02  1.28237041756E+02  5.87386917370E-01  0.0000E+00  9.0
        1    1    4    4  504    0  5.27925797725E+01 -6.30296004922E+01  2.11010115520E+02  2.26462040680E+02  0.00000000000E+00  0.0000E+00  9.0
       -2    1    4    4    0  504  1.22031827807E+01  1.64957528593E+01  1.13045060698E+01  2.34268945842E+01  0.00000000000E+00  0.0000E+00  9.0
</event>
<event>
 8    1   5.1859766E+00   4.9930000E+02  -1.0000000E+00   9.3510000E-02
       11   -1    0    0    0    0  0.00000000000E+00  0.00000000000E+00  2.50000000000E+02  2.50000000000E+02  0.00000000000E+00  0.0000E+00  9.0
      -11   -1    0    0    0    0  0.00000000000E+00  0.00000000000E+00 -2.49269250280E+02  2.49269250280E+02  0.00000000000E+00  0.0000E+00  9.0
       24    2    1    2    0    0  1.15161462134E+01 -2.67489761461E+01 -2.32622810724E+02  2.47819547500E+02  8.03307332572E+01  2.8520E-14  9.0
      -24    2    1    2    0    0 -1.15161462134E+01  2.67489761461E+01  2.33353560434E+02  2.51449702781E+02  8.90221293461E+01  1.8802E-13  9.0
       -3    1    3    3    0  500 -2.59419590156E+01  6.63848593970E+00 -3.58379819229E+01  4.47371845498E+01  0.00000000000E+00  0.0000E+00  9.0
        4    1    3    3  500    0  3.74581052290E+01 -3.33874620858E+01 -1.96784828801E+02  2.03082362950E+02  5.87386917370E-01  0.0000E+00  9.0
        3    1    4    4  504    0 -3.02132132078E+01  1.65286106996E+01  2.26434802298E+02  2.29038758544E+02  0.00000000000E+00  0.0000E+00  9.0
       -4    1    4    4    0  504  1.86970669944E+01  1.02203654465E+01  6.91875813593E+00  2.24109442369E+01  5.87386917370E-01  0.0000E+00  9.0
</event>
<event>
 8    1   5.1859766E+00   4.9410000E+02  -1.0000000E+00   9.3620000E-02
       11   -1    0    0    0    0  0.00000000000E+00  0.00000000000E+00  2.46017338120E+02  2.46017338120E+02  0.00000000000E+00  0.0000E+00  9.0
      -11   -1    0    0    0    0  0.00000000000E+00  0.00000000000E+00 -2.48055454570E+02  2.48055454570E+02  0.00000000000E+00  0.0000E+00  9.0
       24    2    1    2    0    0  5.47046155380E+00 -9.85117069329E+00 -2.33452923179E+02  2.48189567336E+02  8.34914515400E+01  9.2655E-14  9.0
      -24    2    1    2    0    0 -5.47046155380E+00  9.85117069329E+00  2.31414806729E+02  2.45883225347E+02  8.23333238728E+01  3.7822E-14  9.0
       -3    1    3    3    0  500 -2.91017515684E+01 -2.36448439403E+01 -5.97412159168E+01  7.05337044861E+01  0.00000000000E+00  0.0000E+00  9.0
        4    1    3    3  500    0  3.45722131222E+01  1.37936732470E+01 -1.73711707262E+02  1.77655862850E+02  5.87386917370E-01  0.0000E+00  9.0
        3    1    4    4  504    0  2.07631955162E+01  6.80222368925E+00  2.11941423175E+02  2.13064655428E+02  0.00000000000E+00  0.0000E+00  9.0
       -4    1    4    4    0  504 -2.62336570700E+01  3.04894700404E+00  1.94733835540E+01  3.28185699190E+01  5.87386917370E-01  0.0000E+00  9.0
</event>
<event>
 8    1   5.1859766E+00   4.3770000E+02  -1.0000000E+00   9.4990000E-02
       11   -1    0    0    0    0  0.00000000000E+00  0.00000000000E+00  2.05848433900E+02  2.05848433900E+02  0.00000000000E+00  0.0000E+00  9.0
      -11   -1    0    0    0    0  0.00000000000E+00  0.00000000000E+00 -2.32674802790E+02  2.32674802790E+02  0.00000000000E+00  0.0000E+00  9.0
       24    2    1    2    0    0 -1.06131691182E+02  1.55213607851E+02 -9.09851822661E+01  2.24314761010E+02  8.17533404808E+01  3.6913E-14  9.0
      -24    2    1    2    0    0  1.06131691182E+02 -1.55213607851E+02  6.41588133781E+01  2.14208475681E+02  8.00856902579E+01  4.4337E-14  9.0
       -3    1    3    3    0  500 -2.02394189516E+00  2.64672050394E+01  1.22075188401E+01  2.92169950478E+01  0.00000000000E+00  0.0000E+00  9.0
        4    1    3    3  500    0 -1.04107749287E+02  1.28746402812E+02 -1.03192701106E+02  1.95097765962E+02  5.87386917370E-01  0.0000E+00  9.0
       13    1    4    4    0    0  1.06641705204E+02 -1.37375278575E+02  7.89870662521E+01  1.91006251888E+02  1.05700000000E-01  0.0000E+00  9.0
      -14    1    4    4    0    0 -5.10014022366E-01 -1.78383292757E+01 -1.48282528740E+01  2.32022237931E+01  0.00000000000E+00  0.0000E+00  9.0
</event>
<event>
 8    1   5.1859766E+00   4.9760000E+02  -1.0000000E+00   9.3540000E-02
       11   -1    0    0    0    0  0.00000000000E+00  0.00000000000E+00  2.47960924800E+02  2.47960924800E+02  0.00000000000E+00  0.0000E+00  9.0
      -11   -1    0    0    0    0  0.00000000000E+00  0.00000000000E+00 -2.49641854520E+02  2.49641854520E+02  0.00000000000E+00  0.0000E+00  9.0
       24    2    1    2    0    0 -7.72997150447E+01  1.25570390471E+02 -1.85156027810E+02  2.49721894732E+02  7.95933487502E+01  1.0740E-14  9.0
      -24    2    1    2    0    0  7.72997150447E+01 -1.25570390471E+02  1.83475098090E+02  2.47880884590E+02  7.77087666682E+01  4.0272E-14  9.0
       -3    1    3    3    0  500 -1.53851022240E+00 -1.10282106487E+01 -1.57979384948E+01  1.93277858148E+01  0.00000000000E+00  0.0000E+00  9.0
        4    1    3    3  500    0 -7.57612048223E+01  1.36598601120E+02 -1.69358089315E+02  2.30394108917E+02  5.87386917370E-01  0.0000E+00  9.0
        1    1    4    4  504    0  5.84897514372E+01 -1.27454430831E+02  1.80765792945E+02  2.28783642031E+02  0.00000000000E+00  0.0000E+00  9.0
       -2    1    4    4    0  504  1.88099636076E+01  1.88404036037E+00  2.70930514419E+00  1.90972425591E+01  0.00000000000E+00  0.0000E+00  9.0
</event>
<event>
 8    1   5.1859766E+00   4.9940000E+02  -1.0000000E+00   9.3500000E-02
       11   -1    0    0    0    0  0.00000000000E+00  0.00000000000E+00  2.49360800540E+02  2.49360800540E+02  0.00000000000E+00  0.0000E+00  9.0
      -11   -1    0    0    0    0  0.00000000000E+00  0.00000000000E+00 -2.49999423240E+02  2.49999423240E+02  0.00000000000E+00  0.0000E+00  9.0
       24    2    1    2    0    0 -1.20347016771E+00 -1.57961627338E+01 -2.36461831932E+02  2.50082348849E+02  7.98499602224E+01  2.7684E-13  9.0
      -24    2    1    2    0    0  1.20347016771E+00  1.57961627338E+01  2.35823209232E+02  2.49277874942E+02  7.92206149041E+01  1.0859E-13  9.0
       -1    1    3    3    0  500  3.93168022050E+01 -8.22511222765E+00 -1.19243359393E+02  1.25827032732E+02  0.00000000000E+00  0.0000E+00  9.0
        2    1    3    3  500    0 -4.05202723727E+01 -7.57105050616E+00 -1.17218472539E+02  1.24255316117E+02  0.00000000000E+00  0.0000E+00  9.0
        3    1    4    4  504    0  8.74795582919E+00  3.26278430281E+01  2.25729933577E+02  2.28243522985E+02  0.00000000000E+00  0.0000E+00  9.0
       -4    1    4    4    0  504 -7.54448566148E+00 -1.68316802943E+01  1.00932756545E+01  2.10343519571E+01  5.87386917370E-01  0.0000E+00  9.0
</event>
<event>
 8    1   5.1859766E+00   4.6710000E+02  -1.0000000E+00   9.4250000E-02
       11   -1    0    0    0    0  0.00000000000E+00  0.00000000000E+00  2.36653132990E+02  2.36653132990E+02  0.00000000000E+00  0.0000E+00  9.0
      -11   -1    0    0    0    0  0.00000000000E+00  0.00000000000E+00 -2.30465677090E+02  2.30465677090E+02  0.00000000000E+00  0.0000E+00  9.0
       24    2    1    2    0    0 -1.45140192754E+00 -6.42366491625E+00 -2.15067752037E+02  2.30336420625E+02  8.22031548138E+01  1.5098E-14  9.0
      -24    2    1    2    0    0  1.45140192754E+00  6.42366491625E+00  2.21255207927E+02  2.36782389447E+02  8.40753404908E+01  7.8495E-14  9.0
       -1    1    3    3    0  500 -8.21669975482E+00 -2.49668122032E+01 -1.70334297373E+01  3.13208172797E+01  0.00000000000E+00  0.0000E+00  9.0
        2    1    3    3  500    0  6.76529782728E+00  1.85431472869E+01 -1.98034322300E+02  1.99015603345E+02  0.00000000000E+00  0.0000E+00  9.0
        1    1    4    4  504    0 -5.40900179922E+00 -2.15586328256E+01  1.14396234367E+01  2.49979385979E+01  0.00000000000E+00  0.0000E+00  9.0
       -2    1    4    4    0  504  6.86040372676E+00  2.79822977418E+01  2.09815584491E+02  2.11784450849E+02  0.00000000000E+00  0.0000E+00  9.0
</event>
<event>
 8    1   5.1859766E+00   4.8780000E+02  -1.0000000E+00   9.3760000E-02
       11   -1    0    0    0    0  0.00000000000E+00  0.00000000000E+00  2.47285157440E+02  2.47285157440E+02  0.00000000000E+00  0.0000E+00  9.0
      -11   -1    0    0    0    0  0.00000000000E+00  0.00000000000E+00 -2.40555306660E+02  2.40555306660E+02  0.00000000000E+00  0.0000E+00  9.0
       24    2    1    2    0    0  1.64126338663E+00  4.89024727692E+00 -2.28384568810E+02  2.42472647210E+02  8.12826249014E+01  2.7170E-14  9.0
      -24    2    1    2    0    0 -1.64126338663E+00 -4.89024727692E+00  2.35114419580E+02  2.45367816890E+02  6.99997643365E+01  2.3086E-14  9.0
      -13    1    3    3    0    0 -1.54182774949E+01 -1.18302252261E+01 -2.13381316162E+02  2.14264497221E+02  1.05700000000E-01  0.0000E+00  9.0
       14    1    3    3    0    0  1.70595408815E+01  1.67204725030E+01 -1.50032526476E+01  2.82081499893E+01  0.00000000000E+00  0.0000E+00  9.0
        1    1    4    4  500    0  4.16847393976E+00 -3.28637743119E+01  1.82637559389E+02  1.85617569041E+02  0.00000000000E+00  0.0000E+00  9.0
       -2    1    4    4    0  500 -5.80973732639E+00  2.79735270350E+01  5.24768601902E+01  5.97502478488E+01  0.00000000000E+00  0.0000E+00  9.0
</event>
<event>
 8    1   5.1859766E+00   5.0000000E+02  -1.0000000E+00   9.3490000E-02
       11   -1    0    0    0    0  0.00000000000E+00  0.00000000000E+00  2.50000000000E+02  2.50000000000E+02  0.00000000000E+00  0.0000E+00  9.0
      -11   -1    0    0    0    0  0.00000000000E+00  0.00000000000E+00 -2.49999999510E+02  2.49999999510E+02  0.00000000000E+00  0.0000E+00  9.0
       24    2    1    2    0    0  6.38287438267E-01  6.96765101419E+01 -2.26016815877E+02  2.50009321758E+02  8.10298490084E+01  1.1285E-13  9.0
      -24    2    1    2    0    0 -6.38287438267E-01 -6.96765101419E+01  2.26016816357E+02  2.49990677760E+02  8.09723052305E+01  9.5110E-14  9.0
       -1    1    3    3    0  500 -2.71375210784E+01  4.58743858412E+01 -6.10838589085E+01  8.10687495015E+01  0.00000000000E+00  0.0000E+00  9.0
        2    1    3    3  500    0  2.77758085166E+01  2.38021243006E+01 -1.64932956969E+02  1.68940572257E+02  0.00000000000E+00  0.0000E+00  9.0
        3    1    4    4  504    0  6.55050373773E+00 -1.06494888204E+01  1.62504537582E+02  1.62984801273E+02  0.00000000000E+00  0.0000E+00  9.0
       -4    1    4    4    0  504 -7.18879117600E+00 -5.90270213215E+01  6.35122787755E+01  8.70058764872E+01  5.87386917370E-01  0.0000E+00  9.0
</event>
<event>
 8    1   5.1859766E+00   4.8280000E+02  -1.0000000E+00   9.3880000E-02
       11   -1    0    0    0    0  0.00000000000E+00  0.00000000000E+00  2.45778680890E+02  2.45778680890E+02  0.00000000000E+00  0.0000E+00  9.0
      -11   -1    0    0    0    0  0.00000000000E+00  0.00000000000E+00 -2.37092669770E+02  2.37092669770E+02  0.00000000000E+00  0.0000E+00  9.0
       24    2    1    2    0    0  1.50805221197E+02  9.25350342180E+01 -1.38915880508E+02  2.38829476215E+02  8.02306023520E+01  5.1935E-14  9.0
      -24    2    1    2    0    0 -1.50805221197E+02 -9.25350342180E+01  1.47601891638E+02  2.44041874448E+02  8.04062856421E+01  3.3425E-13  9.0
       -1    1    3    3    0  500  1.51882118045E+02  9.31661460149E+01 -1.46789412322E+02  2.30857618707E+02  0.00000000000E+00  0.0000E+00  9.0
        2    1    3    3  500    0 -1.07689684811E+00 -6.31111796906E-01  7.87353181327E+00  7.97185750853E+00  0.00000000000E+00  0.0000E+00  9.0
        1    1    4    4  504    0 -1.23585478502E+02 -3.16624840195E+01  1.00385870805E+02  1.62336707026E+02  0.00000000000E+00  0.0000E+00  9.0
       -2    1    4    4    0  504 -2.72197426952E+01 -6.08725501985E+01  4.72160208333E+01  8.17051674216E+01  0.00000000000E+00  0.0000E+00  9.0
</event>
<event>
 8    1   5.1859766E+00   4.5140000E+02  -1.0000000E+00   9.4640000E-02
       11   -1    0    0    0    0  0.00000000000E+00  0.00000000000E+00  2.05912504590E+02  2.05912504590E+02  0.00000000000E+00  0.0000E+00  9.0
      -11   -1    0    0    0    0  0.00000000000E+00  0.00000000000E+00 -2.47404522010E+02  2.47404522010E+02  0.00000000000E+00  0.0000E+00  9.0
       24    2    1    2    0    0  2.82526855920E+01 -4.24702883727E+00 -2.30486361405E+02  2.45710764665E+02  8.02095105406E+01  1.0538E-13  9.0
      -24    2    1    2    0    0 -2.82526855920E+01  4.24702883727E+00  1.88994343995E+02  2.07606261937E+02  8.10262083291E+01  2.7688E-14  9.0
       -1    1    3    3    0  500  7.14364189042E+00 -4.07658659699E+01 -9.06466237880E+01  9.96478692792E+01  0.00000000000E+00  0.0000E+00  9.0
        2    1    3    3  500    0  2.11090437016E+01  3.65188371326E+01 -1.39839737617E+02  1.46062895386E+02  0.00000000000E+00  0.0000E+00  9.0
        1    1    4    4  504    0  1.81633035107E+01  3.92302613880E+00  7.11563254055E+00  1.98979384600E+01  0.00000000000E+00  0.0000E+00  9.0
       -2    1    4    4    0  504 -4.64159891027E+01  3.24002698467E-01  1.81878711455E+02  1.87708323477E+02  0.00000000000E+00  0.0000E+00  9.0
</event>
<event>
 8    1   5.1859766E+00   4.6890000E+02  -1.0000000E+00   9.4210000E-02
       11   -1    0    0    0    0  0.00000000000E+00  0.00000000000E+00  2.49999977360E+02  2.49999977360E+02  0.00000000000E+00  0.0000E+00  9.0
      -11   -1    0    0    0    0  0.00000000000E+00  0.00000000000E+00 -2.19868666370E+02  2.19868666370E+02  0.00000000000E+00  0.0000E+00  9.0
       24    2    1    2    0    0  1.48762679229E+02  2.43377595032E+01 -1.46002887976E+02  2.24540811604E+02  7.98690898249E+01  2.3666E-16  9.0
      -24    2    1    2    0    0 -1.48762679229E+02 -2.43377595032E+01  1.76134198976E+02  2.45327832126E+02  8.02485382898E+01  4.5679E-14  9.0
       -3    1    3    3    0  500  4.55918991015E+01  1.54595831365E+01 -3.34088672314E+00  4.82574501868E+01  0.00000000000E+00  0.0000E+00  9.0
        4    1    3    3  500    0  1.03170780128E+02  8.87817636670E+00 -1.42662001253E+02  1.76283361417E+02  5.87386917370E-01  0.0000E+00  9.0
        1    1    4    4  504    0 -1.11300175496E+02  2.34901716426E+00  7.50189464658E+01  1.34242650733E+02  0.00000000000E+00  0.0000E+00  9.0
       -2    1    4    4    0  504 -3.74625037333E+01 -2.66867766675E+01  1.01115252510E+02  1.11085181393E+02  0.00000000000E+00  0.0000E+00  9.0
</event>
<event>
 8    1   5.1859766E+00   4.9910000E+02  -1.0000000E+00   9.3510000E-02
       11   -1    0    0    0    0  0.00000000000E+00  0.00000000000E+00  2.49915964140E+02  2.49915964140E+02  0.00000000000E+00  0.0000E+00  9.0
      -11   -1    0    0    0    0  0.00000000000E+00  0.00000000000E+00 -2.49205038040E+02  2.49205038040E+02  0.00000000000E+00  0.0000E+00  9.0
       24    2    1    2    0    0 -6.11538735025E+01 -4.96171425822E+01 -2.17395602343E+02  2.53691994346E+02  1.04389285823E+02  2.6280E-14  9.0
      -24    2    1    2    0    0  6.11538735025E+01  4.96171425822E+01  2.18106528453E+02  2.45429007834E+02  8.03945461473E+01  2.2991E-13  9.0
      -13    1    3    3    0    0 -2.76523441106E+01 -7.94090033584E+01 -1.20617920803E+02  1.47034471946E+02  1.05700000000E-01  0.0000E+00  9.0
       14    1    3    3    0    0 -3.35015293919E+01  2.97918607761E+01 -9.67776815400E+01  1.06657522399E+02  0.00000000000E+00  0.0000E+00  9.0
        3    1    4    4  500    0  4.19804163982E+01 -1.34451847724E+01  1.13817068480E+02  1.22055124563E+02  0.00000000000E+00  0.0000E+00  9.0
       -4    1    4    4    0  500  1.91734571043E+01  6.30623273547E+01  1.04289459973E+02  1.23373883272E+02  5.87386917370E-01  0.0000E+00  9.0
</event>
<event>
 8    1   5.1859766E+00   4.9650000E+02  -1.0000000E+00   9.3570000E-02
       11   -1    0    0    0    0  0.00000000000E+00  0.00000000000E+00  2.49999933340E+02  2.49999933340E+02  0.00000000000E+00  0.0000E+00  9.0
      -11   -1    0    0    0    0  0.00000000000E+00  0.00000000000E+00 -2.46532575590E+02  2.46532575590E+02  0.00000000000E+00  0.0000E+00  9.0
       24    2    1    2    0    0 -3.96567396200E+01  3.01054032260E+01 -2.27457465786E+02  2.46374548564E+02  8.05265616913E+01  2.0749E-14  9.0
      -24    2    1    2    0    0  3.96567396200E+01 -3.01054032260E+01  2.30924823536E+02  2.50157960366E+02  8.23027260092E+01  6.4228E-14  9.0
       -1    1    3    3    0  500 -3.28908859347E+01  2.98332031117E+00 -2.35560574264E+01  4.05659761269E+01  0.00000000000E+00  0.0000E+00  9.0
        2    1    3    3  500    0 -6.76585368528E+00  2.71220829148E+01 -2.03901408360E+02  2.05808572437E+02  0.00000000000E+00  0.0000E+00  9.0
        3    1    4    4  504    0  4.94016179133E+01 -4.97227150133E+01  1.39184749572E+02  1.55837295774E+02  0.00000000000E+00  0.0000E+00  9.0
       -4    1    4    4    0  504 -9.74487829331E+00  1.96173117873E+01  9.17400739642E+01  9.43206645919E+01  5.87386917370E-01  0.0000E+00  9.0
</event>
<event>
 8    1   5.1859766E+00   4.5400000E+02  -1.0000000E+00   9.4570000E-02
       11   -1    0    0    0    0  0.00000000000E+00  0.00000000000E+00  2.50000000000E+02  2.50000000000E+02  0.00000000000E+00  0.0000E+00  9.0
      -11   -1    0    0    0    0  0.00000000000E+00  0.00000000000E+00 -2.06154994300E+02  2.06154994300E+02  0.00000000000E+00  0.0000E+00  9.0
       24    2    1    2    0    0 -4.24848043684E+01  9.60498726355E+01 -1.63172939486E+02  2.10198888264E+02  8.07937362120E+01  1.2029E-13  9.0
      -24    2    1    2    0    0  4.24848043684E+01 -9.60498726355E+01  2.07017945186E+02  2.45956106039E+02  8.12861601586E+01  2.5271E-13  9.0
       -1    1    3    3    0  500 -6.44799241138E+01  7.33322235383E+01 -1.41267408216E+02  1.71731640203E+02  0.00000000000E+00  0.0000E+00  9.0
        2    1    3    3  500    0  2.19951197454E+01  2.27176490972E+01 -2.19055312709E+01  3.84672480608E+01  0.00000000000E+00  0.0000E+00  9.0
        3    1    4    4  504    0  1.67549728498E+01 -7.48045672957E+01  6.63521060786E+01  1.01385671495E+02  0.00000000000E+00  0.0000E+00  9.0
       -4    1    4    4    0  504  2.57298315186E+01 -2.12453053398E+01  1.40665839108E+02  1.44570434544E+02  5.87386917370E-01  0.0000E+00  9.0
</event>
<event>
 8    1   5.1859766E+00   4.8300000E+02  -1.0000000E+00   9.3880000E-02
       11   -1    0    0    0    0  0.00000000000E+00  0.00000000000E+00  2.36297358450E+02  2.36297358450E+02  0.00000000000E+00  0.0000E+00  9.0
      -11   -1    0    0    0    0  0.00000000000E+00  0.00000000000E+00 -2.46808048150E+02  2.46808048150E+02  0.00000000000E+00  0.0000E+00  9.0
       24    2    1    2    0    0  4.00124642492E+01  1.26643570027E+00 -2.29689811374E+02  2.46214026168E+02  7.91286046759E+01  3.4714E-14  9.0
      -24    2    1    2    0    0 -4.00124642492E+01 -1.26643570027E+00  2.19179121674E+02  2.36891380427E+02  8.04701036899E+01  6.6654E-15  9.0
      -13    1    3    3    0    0 -1.25209013950E+01  8.06031382621E+00 -5.53722227557E+00  1.58875307628E+01  1.05700000000E-01  0.0000E+00  9.0
       14    1    3    3    0    0  5.25333656442E+01 -6.79387812593E+00 -2.24152589099E+02  2.30326495405E+02  0.00000000000E+00  0.0000E+00  9.0
        3    1    4    4  500    0 -2.57911949143E+01  9.54746387775E+00  1.38620977495E+01  3.07976875045E+01  0.00000000000E+00  0.0000E+00  9.0
       -4    1    4    4    0  500 -1.42212693348E+01 -1.08138995780E+01  2.05317023925E+02  2.06093692922E+02  5.87386917370E-01  0.0000E+00  9.0
</event>
<event>
 8    1   5.1859766E+00   3.8430000E+02  -1.0000000E+00   9.6500000E-02
       11   -1    0    0    0    0  0.00000000000E+00  0.00000000000E+00  1.53884912950E+02  1.53884912950E+02  0.00000000000E+00  0.0000E+00  9.0
      -11   -1    0    0    0    0  0.00000000000E+00  0.00000000000E+00 -2.39947082710E+02  2.39947082710E+02  0.00000000000E+00  0.0000E+00  9.0
       24    2    1    2    0    0  4.47165786985E+01  4.29860155512E+01 -2.10084107675E+02  2.33793554652E+02  8.17112229483E+01  2.0294E-14  9.0
      -24    2    1    2    0    0 -4.47165786985E+01 -4.29860155512E+01  1.24021937915E+02  1.60038441013E+02  7.98967557183E+01  4.1799E-14  9.0
       -1    1    3    3    0  500 -1.23804867011E+01  4.36083610108E+01 -9.93872995237E+01  1.09237360402E+02  0.00000000000E+00  0.0000E+00  9.0
        2    1    3    3  500    0  5.70970653996E+01 -6.22345459558E-01 -1.10696808151E+02  1.24556194249E+02  0.00000000000E+00  0.0000E+00  9.0
        1    1    4    4  504    0  1.99045951832E+00 -5.28244852127E+01  5.67878382644E+01  7.75838046361E+01  0.00000000000E+00  0.0000E+00  9.0
       -2    1    4    4    0  504 -4.67070382168E+01  9.83846966144E+00  6.72340996502E+01  8.24546363769E+01  0.00000000000E+00  0.0000E+00  9.0
</event>
<event>
 8    1   5.1859766E+00   4.6810000E+02  -1.0000000E+00   9.4230000E-02
       11   -1    0    0    0    0  0.00000000000E+00  0.00000000000E+00  2.45110188430E+02  2.45110188430E+02  0.00000000000E+00  0.0000E+00  9.0
      -11   -1    0    0    0    0  0.00000000000E+00  0.00000000000E+00 -2.23445639440E+02  2.23445639440E+02  0.00000000000E+00  0.0000E+00  9.0
       24    2    1    2    0    0 -1.67051402460E+01  2.70001293959E+00 -2.07801918419E+02  2.23642271161E+02  8.09189493951E+01  1.2202E-13  9.0
      -24    2    1    2    0    0  1.67051402460E+01 -2.70001293959E+00  2.29466467409E+02  2.44913556708E+02  8.39132815099E+01  1.1674E-15  9.0
       -3    1    3    3    0  500 -3.46026263150E+01  3.23024822621E+01 -1.34471536641E+02  1.42560114600E+02  0.00000000000E+00  0.0000E+00  9.0
        4    1    3    3  500    0  1.78974860690E+01 -2.96024693225E+01 -7.33303817773E+01  8.10821565610E+01  5.87386917370E-01  0.0000E+00  9.0
        1    1    4    4  504    0 -1.00837126172E+01 -3.90228421026E+01  1.15858177152E+02  1.22668580651E+02  0.00000000000E+00  0.0000E+00  9.0
       -2    1    4    4    0  504  2.67888528632E+01  3.63228291630E+01  1.13608290256E+02  1.22244976057E+02  0.00000000000E+00  0.0000E+00  9.0
</event>
<event>
 8    1   5.1859766E+00   4.9810000E+02  -1.0000000E+00   9.3530000E-02
       11   -1    0    0    0    0  0.00000000000E+00  0.00000000000E+00  2.48145060090E+02  2.48145060090E+02  0.00000000000E+00  0.0000E+00  9.0
      -11   -1    0    0    0    0  0.00000000000E+00  0.00000000000E+00 -2.49993051250E+02  2.49993051250E+02  0.00000000000E+00  0.0000E+00  9.0
       24    2    1    2    0    0 -1.99505711104E+02  7.34363871818E+01 -1.02323233943E+02  2.49071298645E+02  7.98187689634E+01  2.9754E-13  9.0
      -24    2    1    2    0    0  1.99505711104E+02 -7.34363871818E+01  1.00475242783E+02  2.49066812699E+02  8.21192489643E+01  2.8866E-14  9.0
      -13    1    3    3    0    0 -1.36953039366E+02  2.46365850323E+01 -9.68672681899E+01  1.69547560091E+02  1.05700000000E-01  0.0000E+00  9.0
       14    1    3    3    0    0 -6.25526717374E+01  4.87998021495E+01 -5.45596575314E+00  7.95237385540E+01  0.00000000000E+00  0.0000E+00  9.0
        1    1    4    4  500    0  2.01019139660E+02 -5.52194666789E+01  8.50461014642E+01  2.25146004593E+02  0.00000000000E+00  0.0000E+00  9.0
       -2    1    4    4    0  500 -1.51342855646E+00 -1.82169205029E+01  1.54291413188E+01  2.39208081059E+01  0.00000000000E+00  0.0000E+00  9.0
</event>
<event>
 8    1   5.1859766E+00   4.8320000E+02  -1.0000000E+00   9.3870000E-02
       11   -1    0    0    0    0  0.00000000000E+00  0.00000000000E+00  2.45474847360E+02  2.45474847360E+02  0.00000000000E+00  0.0000E+00  9.0
      -11   -1    0    0    0    0  0.00000000000E+00  0.00000000000E+00 -2.37752978260E+02  2.37752978260E+02  0.00000000000E+00  0.0000E+00  9.0
       24    2    1    2    0    0  4.17922841210E+01  1.65004847119E+02 -1.48881269787E+02  2.39400240859E+02  7.85725667452E+01  3.6392E-15  9.0
      -24    2    1    2    0    0 -4.17922841210E+01 -1.65004847119E+02  1.56603138877E+02  2.43827584760E+02  7.71631608935E+01  1.1184E-13  9.0
       -3    1    3    3    0  500  5.29035716422E+01  1.55056895045E+02 -1.08902272958E+02  1.96726037039E+02  0.00000000000E+00  0.0000E+00  9.0
        4    1    3    3  500    0 -1.11112875212E+01  9.94795207428E+00 -3.99789968287E+01  4.26742038200E+01  5.87386917370E-01  0.0000E+00  9.0
        3    1    4    4  504    0 -1.91253777274E+01 -1.43553828035E+02  9.06293223164E+01  1.70842487924E+02  0.00000000000E+00  0.0000E+00  9.0
       -4    1    4    4    0  504 -2.26669063936E+01 -2.14510190846E+01  6.59738165607E+01  7.29850968363E+01  5.87386917370E-01  0.0000E+00  9.0
</event>
<event>
 8    1   5.1859766E+00   4.9930000E+02  -1.0000000E+00   9.3510000E-02
       11   -1    0    0    0    0  0.00000000000E+00  0.00000000000E+00  2.49259940510E+02  2.49259940510E+02  0.00000000000E+00  0.0000E+00  9.0
      -11   -1    0    0    0    0  0.00000000000E+00  0.00000000000E+00 -2.50000000000E+02  2.50000000000E+02  0.00000000000E+00  0.0000E+00  9.0
       24    2    1    2    0    0  1.56631461703E+00  1.86160829639E+01 -2.35070998763E+02  2.50799147120E+02  8.53980435970E+01  1.6308E-14  9.0
      -24    2    1    2    0    0 -1.56631461703E+00 -1.86160829639E+01  2.34330939273E+02  2.48460793395E+02  8.04534950594E+01  8.0188E-14  9.0
       -1    1    3    3    0  500  1.89969123934E+01 -1.38841312144E+01 -1.55544924867E+01  2.82062761913E+01  0.00000000000E+00  0.0000E+00  9.0
        2    1    3    3  500    0 -1.74305977763E+01  3.25002141783E+01 -2.19516506276E+02  2.22592870929E+02  0.00000000000E+00  0.0000E+00  9.0
        1    1    4    4  504    0  2.26940021198E+01 -1.17379401577E+01  2.15448344325E+02  2.16958028300E+02  0.00000000000E+00  0.0000E+00  9.0
       -2    1    4    4    0  504 -2.42603167368E+01 -6.87814280623E+00  1.88825949476E+01  3.15027650943E+01  0.00000000000E+00  0.0000E+00  9.0
</event>
<event>
 8    1   5.1859766E+00   4.9760000E+02  -1.0000000E+00   9.3540000E-02
       11   -1    0    0    0    0  0.00000000000E+00  0.00000000000E+00  2.48421147840E+02  2.48421147840E+02  0.00000000000E+00  0.0000E+00  9.0
      -11   -1    0    0    0    0  0.00000000000E+00  0.00000000000E+00 -2.49137110310E+02  2.49137110310E+02  0.00000000000E+00  0.0000E+00  9.0
       24    2    1    2    0    0  1.50137224379E+01  2.75518352860E+01 -2.33848159470E+02  2.49911414306E+02  8.23786247975E+01  6.5960E-14  9.0
      -24    2    1    2    0    0 -1.50137224379E+01 -2.75518352860E+01  2.33132197010E+02  2.47646843845E+02  7.74197810273E+01  1.8065E-13  9.0
       -3    1    3    3    0  500 -1.64624889619E+01  3.33173429064E+01 -4.49584422418E+01  5.83294129061E+01  0.00000000000E+00  0.0000E+00  9.0
        4    1    3    3  500    0  3.14762113998E+01 -5.76550762032E+00 -1.88889717229E+02  1.91582001400E+02  5.87386917370E-01  0.0000E+00  9.0
        1    1    4    4  504    0  7.82239647676E+00 -2.31811376350E+01  2.19159208323E+02  2.20520551472E+02  0.00000000000E+00  0.0000E+00  9.0
       -2    1    4    4    0  504 -2.28361189147E+01 -4.37069765106E+00  1.39729886874E+01  2.71262923729E+01  0.00000000000E+00  0.0000E+00  9.0
</event>
<event>
 8    1   5.1859766E+00   4.7870000E+02  -1.0000000E+00   9.3970000E-02
       11   -1    0    0    0    0  0.00000000000E+00  0.00000000000E+00  2.50000000000E+02  2.50000000000E+02  0.00000000000E+00  0.0000E+00  9.0
      -11   -1    0    0    0    0  0.00000000000E+00  0.00000000000E+00 -2.29183261840E+02  2.29183261840E+02  0.00000000000E+00  0.0000E+00  9.0
       24    2    1    2    0    0 -5.59168622426E+01 -1.74072648402E+02 -1.21917086979E+02  2.33567939167E+02  7.91342132373E+01  5.5185E-14  9.0
      -24    2    1    2    0    0  5.59168622426E+01  1.74072648402E+02  1.42733825139E+02  2.45615322686E+02  8.07834110111E+01  8.8648E-14  9.0
       -1    1    3    3    0  500 -5.23344410748E+01 -5.62041775365E+01 -2.44992333965E+01  8.06102706371E+01  0.00000000000E+00  0.0000E+00  9.0
        2    1    3    3  500    0 -3.58242116777E+00 -1.17868470865E+02 -9.74178535826E+01  1.52957668530E+02  0.00000000000E+00  0.0000E+00  9.0
        3    1    4    4  504    0  2.77109877621E+01  1.24269285099E+02  1.38635245819E+02  1.88229873944E+02  0.00000000000E+00  0.0000E+00  9.0
       -4    1    4    4    0  504  2.82058744804E+01  4.98033633025E+01  4.09857932037E+00  5.73854487417E+01  5.87386917370E-01  0.0000E+00  9.0
</event>
<event>
 8    1   5.1859766E+00   4.9040000E+02  -1.0000000E+00   9.3710000E-02
       11   -1    0    0    0    0  0.00000000000E+00  0.00000000000E+00  2.40449866950E+02  2.40449866950E+02  0.00000000000E+00  0.0000E+00  9.0
      -11   -1    0    0    0    0  0.00000000000E+00  0.00000000000E+00 -2.49999072050E+02  2.49999072050E+02  0.00000000000E+00  0.0000E+00  9.0
       24    2    1    2    0    0  7.90802132055E+01 -4.52673599621E+01 -2.17882546887E+02  2.48974982720E+02  7.88221021301E+01  3.9950E-14  9.0
      -24    2    1    2    0    0 -7.90802132055E+01  4.52673599621E+01  2.08333341787E+02  2.41473956278E+02  8.12654678313E+01  9.2602E-14  9.0
      -13    1    3    3    0    0  9.17100483624E+01 -3.30904655868E+01 -2.05639539012E+02  2.27581508609E+02  1.05700000000E-01  0.0000E+00  9.0
       14    1    3    3    0    0 -1.26298351568E+01 -1.21768943754E+01 -1.22430078748E+01  2.13934741111E+01  0.00000000000E+00  0.0000E+00  9.0
        1    1    4    4  500    0 -3.04662124121E+01  6.32902405912E+01  1.18766326866E+02  1.37982915790E+02  0.00000000000E+00  0.0000E+00  9.0
       -2    1    4    4    0  500 -4.86140007934E+01 -1.80228806291E+01  8.95670149213E+01  1.03491040488E+02  0.00000000000E+00  0.0000E+00  9.0
</event>
<event>
 8    1   5.1859766E+00   4.9940000E+02  -1.0000000E+00   9.3500000E-02
       11   -1    0    0    0    0  0.00000000000E+00  0.00000000000E+00  2.49999997100E+02  2.49999997100E+02  0.00000000000E+00  0.0000E+00  9.0
      -11   -1    0    0    0    0  0.00000000000E+00  0.00000000000E+00 -2.49414865410E+02  2.49414865410E+02  0.00000000000E+00  0.0000E+00  9.0
       24    2    1    2    0    0  1.42720509818E+02  6.31629395770E+01 -1.77888631380E+02  2.49250260872E+02  7.82472140826E+01  8.4070E-15  9.0
      -24    2    1    2    0    0 -1.42720509818E+02 -6.31629395770E+01  1.78473763070E+02  2.50164601643E+02  7.98169339956E+01  3.7456E-14  9.0
       -3    1    3    3    0  500  1.57157419366E-01 -1.21535849913E+01 -2.11002293874E+01  2.43506469482E+01  0.00000000000E+00  0.0000E+00  9.0
        4    1    3    3  500    0  1.42563352398E+02  7.53165245683E+01 -1.56788401993E+02  2.24899613923E+02  5.87386917370E-01  0.0000E+00  9.0
        3    1    4    4  504    0 -1.30760476889E+02 -3.27540605786E+01  1.08883503248E+02  1.73282278609E+02  0.00000000000E+00  0.0000E+00  9.0
       -4    1    4    4    0  504 -1.19600329289E+01 -3.04088789984E+01  6.95902598222E+01  7.68823230341E+01  5.87386917370E-01  0.0000E+00  9.0
</event>
<event>
 8    1   5.1859766E+00   4.8920000E+02  -1.0000000E+00   9.3730000E-02
       11   -1    0    0    0    0  0.00000000000E+00  0.00000000000E+00  2.39270044500E+02  2.39270044500E+02  0.00000000000E+00  0.0000E+00  9.0
      -11   -1    0    0    0    0  0.00000000000E+00  0.00000000000E+00 -2.49999896820E+02  2.49999896820E+02  0.00000000000E+00  0.0000E+00  9.0
       24    2    1    2    0    0 -7.61717899173E+01 -3.62607605453E+01 -2.20164297601E+02  2.49129627655E+02  8.04752701333E+01  8.3602E-15  9.0
      -24    2    1    2    0    0  7.61717899173E+01  3.62607605453E+01  2.09434445281E+02  2.40140313670E+02  8.17777417442E+01  4.6394E-15  9.0
      -13    1    3    3    0    0 -5.91956075007E+01 -6.13453394891E+01 -1.46780808799E+02  1.69740942700E+02  1.05700000000E-01  0.0000E+00  9.0
       14    1    3    3    0    0 -1.69761824166E+01  2.50845789438E+01 -7.33834888017E+01  7.93886849553E+01  0.00000000000E+00  0.0000E+00  9.0
       13    1    4    4    0    0  8.85307743898E+01  4.56775258129E+01  1.94804798698E+02  2.18799120534E+02  1.05700000000E-01  0.0000E+00  9.0
      -14    1    4    4    0    0 -1.23589844724E+01 -9.41676526762E+00  1.46296465830E+01  2.13411931353E+01  0.00000000000E+00  0.0000E+00  9.0
</event>
<event>
 8    1   5.1859766E+00   4.8370000E+02  -1.0000000E+00   9.3860000E-02
       11   -1    0    0    0    0  0.00000000000E+00  0.00000000000E+00  2.38562055550E+02  2.38562055550E+02  0.00000000000E+00  0.0000E+00  9.0
      -11   -1    0    0    0    0  0.00000000000E+00  0.00000000000E+00 -2.45192516320E+02  2.45192516320E+02  0.00000000000E+00  0.0000E+00  9.0
       24    2    1    2    0    0 -4.36298423015E+01 -2.52876644362E+01 -2.25008755763E+02  2.45543480714E+02  8.43779096648E+01  6.0039E-14  9.0
      -24    2    1    2    0    0  4.36298423015E+01  2.52876644362E+01  2.18378294993E+02  2.38211091163E+02  8.06995360398E+01  1.0788E-13  9.0
       -3    1    3    3    0  500 -5.05651807439E+00  1.74019235663E+01 -1.49583356021E+02  1.50677057701E+02  0.00000000000E+00  0.0000E+00  9.0
        4    1    3    3  500    0 -3.85733242271E+01 -4.26895880025E+01 -7.54253997417E+01  9.48664230133E+01  5.87386917370E-01  0.0000E+00  9.0
        3    1    4    4  504    0  4.13246997183E+01 -2.23152392700E+01  9.58063294294E+01  1.06698422993E+02  0.00000000000E+00  0.0000E+00  9.0
       -4    1    4    4    0  504  2.30514258319E+00  4.76029037062E+01  1.22571965564E+02  1.31512668170E+02  5.87386917370E-01  0.0000E+00  9.0
</event>
<event>
 8    1   5.1859766E+00   4.9900000E+02  -1.0000000E+00   9.3510000E-02
       11   -1    0    0    0    0  0.00000000000E+00  0.00000000000E+00  2.50000000000E+02  2.50000000000E+02  0.00000000000E+00  0.0000E+00  9.0
      -11   -1    0    0    0    0  0.00000000000E+00  0.00000000000E+00 -2.48981500540E+02  2.48981500540E+02  0.00000000000E+00  0.0000E+00  9.0
       24    2    1    2    0    0  9.56090643822E-01  1.78329290010E+01 -2.35448477254E+02  2.48517862092E+02  7.74997733664E+01  3.1314E-15  9.0
      -24    2    1    2    0    0 -9.56090643822E-01 -1.78329290010E+01  2.36466976714E+02  2.50463638447E+02  8.06007173777E+01  1.1044E-13  9.0
       -3    1    3    3    0  500 -4.36660852978E+00 -5.06453525501E+00 -2.20612048996E+02  2.20713372838E+02  0.00000000000E+00  0.0000E+00  9.0
        4    1    3    3  500    0  5.32269917361E+00  2.28974642560E+01 -1.48364282576E+01  2.78044892541E+01  5.87386917370E-01  0.0000E+00  9.0
        3    1    4    4  504    0 -2.08427927996E+01 -4.34462816467E+01  1.13803055023E+02  1.23584532743E+02  0.00000000000E+00  0.0000E+00  9.0
       -4    1    4    4    0  504  1.98867021557E+01  2.56133526457E+01  1.22663921691E+02  1.26879105704E+02  5.87386917370E-01  0.0000E+00  9.0
</event>
<event>
 8    1   5.1859766E+00   4.5730000E+02  -1.0000000E+00   9.4490000E-02
       11   -1    0    0    0    0  0.00000000000E+00  0.00000000000E+00  2.49738756770E+02  2.49738756770E+02  0.00000000000E+00  0.0000E+00  9.0
      -11   -1    0    0    0    0  0.00000000000E+00  0.00000000000E+00 -2.09351101000E+02  2.09351101000E+02  0.00000000000E+00  0.0000E+00  9.0
       24    2    1    2    0    0 -1.78737792821E+02 -9.43161848536E+01 -5.10131052439E+01  2.23207528137E+02  7.98531301966E+01  8.4815E-15  9.0
      -24    2    1    2    0    0  1.78737792821E+02  9.43161848536E+01  9.14007610179E+01  2.35882329637E+02  8.02722430992E+01  4.3989E-13  9.0
       -3    1    3    3    0  500 -7.08464409281E+00 -2.53810022304E+01 -2.51545660156E+01  3.64299279107E+01  0.00000000000E+00  0.0000E+00  9.0
        4    1    3    3  500    0 -1.71653148729E+02 -6.89351826232E+01 -2.58585392283E+01  1.86777600226E+02  5.87386917370E-01  0.0000E+00  9.0
        1    1    4    4  504    0  8.60339753596E+01  8.82890563416E+01  3.93966285214E+01  1.29417528661E+02  0.00000000000E+00  0.0000E+00  9.0
       -2    1    4    4    0  504  9.27038174618E+01  6.02712851209E+00  5.20041324965E+01  1.06464800976E+02  0.00000000000E+00  0.0000E+00  9.0
</event>
<event>
 8    1   5.1859766E+00   4.8950000E+02  -1.0000000E+00   9.3730000E-02
       11   -1    0    0    0    0  0.00000000000E+00  0.00000000000E+00  2.39579504270E+02  2.39579504270E+02  0.00000000000E+00  0.0000E+00  9.0
      -11   -1    0    0    0    0  0.00000000000E+00  0.00000000000E+00 -2.49999671600E+02  2.49999671600E+02  0.00000000000E+00  0.0000E+00  9.0
       24    2    1    2    0    0 -6.16974066601E+00 -2.09937302617E+01 -2.38322842158E+02  2.52224598293E+02  7.96283145576E+01  3.5771E-15  9.0
      -24    2    1    2    0    0  6.16974066601E+00  2.09937302617E+01  2.27902674818E+02  2.37354577579E+02  6.26000311368E+01  5.6708E-15  9.0
       -1    1    3    3    0  500  3.52993460853E+01 -1.53685191458E+01 -8.53647339741E+01  9.36449305689E+01  0.00000000000E+00  0.0000E+00  9.0
        2    1    3    3  500    0 -4.14690867513E+01 -5.62521111588E+00 -1.52958108184E+02  1.58579667724E+02  0.00000000000E+00  0.0000E+00  9.0
       13    1    4    4    0    0 -2.39696295249E+01  7.11833405395E+00  4.51243448947E+01  5.15890637047E+01  1.05700000000E-01  0.0000E+00  9.0
      -14    1    4    4    0    0  3.01393701909E+01  1.38753962077E+01  1.82778329924E+02  1.85765513875E+02  0.00000000000E+00  0.0000E+00  9.0
</event>
<event>
 8    1   5.1859766E+00   4.9770000E+02  -1.0000000E+00   9.3540000E-02
       11   -1    0    0    0    0  0.00000000000E+00  0.00000000000E+00  2.49803626960E+02  2.49803626960E+02  0.00000000000E+00  0.0000E+00  9.0
      -11   -1    0    0    0    0  0.00000000000E+00  0.00000000000E+00 -2.47929073730E+02  2.47929073730E+02  0.00000000000E+00  0.0000E+00  9.0
       24    2    1    2    0    0  3.21136192552E+00 -9.87543569031E-01 -2.33200837128E+02  2.47846120189E+02  8.38676383801E+01  5.2114E-14  9.0
      -24    2    1    2    0    0 -3.21136192552E+00  9.87543569031E-01  2.35075390358E+02  2.49886580500E+02  8.46851573410E+01  4.5218E-14  9.0
       -3    1    3    3    0  500  4.57249336026E+00 -2.27925564588E+01 -1.31413279650E+01  2.67039852108E+01  0.00000000000E+00  0.0000E+00  9.0
        4    1    3    3  500    0 -1.36113143473E+00  2.18050128898E+01 -2.20059509163E+02  2.21142134978E+02  5.87386917370E-01  0.0000E+00  9.0
        3    1    4    4  504    0  2.38586764772E+00  3.16731026507E+01  3.44817177678E+01  4.68814105609E+01  0.00000000000E+00  0.0000E+00  9.0
       -4    1    4    4    0  504 -5.59722957324E+00 -3.06855590817E+01  2.00593672591E+02  2.03005169939E+02  5.87386917370E-01  0.0000E+00  9.0
</event>
<event>
 8    1   5.1859766E+00   4.9990000E+02  -1.0000000E+00   9.3490000E-02
       11   -1    0    0    0    0  0.00000000000E+00  0.00000000000E+00  2.49896887050E+02  2.49896887050E+02  0.00000000000E+00  0.0000E+00  9.0
      -11   -1    0    0    0    0  0.00000000000E+00  0.00000000000E+00 -2.49999196140E+02  2.49999196140E+02  0.00000000000E+00  0.0000E+00  9.0
       24    2    1    2    0    0 -2.77951341263E+01  2.18093793916E+01 -2.34216871824E+02  2.50294932603E+02  8.08813435160E+01  3.0057E-14  9.0
      -24    2    1    2    0    0  2.77951341263E+01 -2.18093793916E+01  2.34114562734E+02  2.49601150583E+02  7.90119445248E+01  1.1673E-13  9.0
       -3    1    3    3    0  500  2.33035173267E+00 -2.66556457935E+01 -4.21196060174E+01  4.99000521335E+01  0.00000000000E+00  0.0000E+00  9.0
        4    1    3    3  500    0 -3.01254858589E+01  4.84650251852E+01 -1.92097265807E+02  2.00394880469E+02  5.87386917370E-01  0.0000E+00  9.0
        1    1    4    4  504    0  3.50886569678E+01 -4.56849715473E+01  1.93825080260E+02  2.02204085545E+02  0.00000000000E+00  0.0000E+00  9.0
       -2    1    4    4    0  504 -7.29352284158E+00  2.38755921556E+01  4.02894824737E+01  4.73970650381E+01  0.00000000000E+00  0.0000E+00  9.0
</event>
<event>
 8    1   5.1859766E+00   4.9740000E+02  -1.0000000E+00   9.3550000E-02
       11   -1    0    0    0    0  0.00000000000E+00  0.00000000000E+00  2.49997698760E+02  2.49997698760E+02  0.00000000000E+00  0.0000E+00  9.0
      -11   -1    0    0    0    0  0.00000000000E+00  0.00000000000E+00 -2.47409607360E+02  2.47409607360E+02  0.00000000000E+00  0.0000E+00  9.0
       24    2    1    2    0    0 -1.55862685190E+01  1.68407092766E+01 -2.33289674943E+02  2.47460536761E+02  7.92849516846E+01  1.6028E-14  9.0
      -24    2    1    2    0    0  1.55862685190E+01 -1.68407092766E+01  2.35877766343E+02  2.49946769354E+02  7.94262274067E+01  4.0914E-15  9.0
       -1    1    3    3    0  500  5.76205226007E+00  3.49475847921E+01 -4.58269387614E+01  5.79192821545E+01  0.00000000000E+00  0.0000E+00  9.0
        2    1    3    3  500    0 -2.13483207791E+01 -1.81068755155E+01 -1.87462736182E+02  1.89541254607E+02  0.00000000000E+00  0.0000E+00  9.0
        1    1    4    4  504    0  1.73733961594E+01 -3.12885110311E+01  2.32186126497E+02  2.34928080813E+02  0.00000000000E+00  0.0000E+00  9.0
       -2    1    4    4    0  504 -1.78712764041E+00  1.44478017546E+01  3.69163984630E+00  1.50186885412E+01  0.00000000000E+00  0.0000E+00  9.0
</event>
<event>
 8    1   5.1859766E+00   5.0000000E+02  -1.0000000E+00   9.3490000E-02
       11   -1    0    0    0    0  0.00000000000E+00  0.00000000000E+00  2.49994673680E+02  2.49994673680E+02  0.00000000000E+00  0.0000E+00  9.0
      -11   -1    0    0    0    0  0.00000000000E+00  0.00000000000E+00 -2.50000000000E+02  2.50000000000E+02  0.00000000000E+00  0.0000E+00  9.0
       24    2    1    2    0    0 -8.15073211478E+00 -2.35384140827E+01 -2.32125774199E+02  2.53480131801E+02  9.87385983241E+01  1.5760E-13  9.0
      -24    2    1    2    0    0  8.15073211478E+00  2.35384140827E+01  2.32120447869E+02  2.46514541878E+02  7.91771789521E+01  8.4784E-14  9.0
       -3    1    3    3    0  500  3.02784000998E+01 -2.94985023337E+00 -1.88392235725E+01  3.57826700208E+01  0.00000000000E+00  0.0000E+00  9.0
        4    1    3    3  500    0 -3.84291322146E+01 -2.05885638493E+01 -2.13286550626E+02  2.17697461780E+02  5.87386917370E-01  0.0000E+00  9.0
        3    1    4    4  504    0  4.22480209014E+01  1.69699871297E+00  1.09504321414E+02  1.17383863811E+02  0.00000000000E+00  0.0000E+00  9.0
       -4    1    4    4    0  504 -3.40972887866E+01  2.18414153697E+01  1.22616126455E+02  1.29130678067E+02  5.87386917370E-01  0.0000E+00  9.0
</event>
<event>
 8    1   5.1859766E+00   5.0000000E+02  -1.0000000E+00   9.3490000E-02
       11   -1    0    0    0    0  0.00000000000E+00  0.00000000000E+00  2.49999869350E+02  2.49999869350E+02  0.00000000000E+00  0.0000E+00  9.0
      -11   -1    0    0    0    0  0.00000000000E+00  0.00000000000E+00 -2.50000000000E+02  2.50000000000E+02  0.00000000000E+00  0.0000E+00  9.0
       24    2    1    2    0    0  2.13321141605E+01  2.35559881906E+01 -2.34446659177E+02  2.49650655943E+02  7.96885834944E+01  2.9570E-13  9.0
      -24    2    1    2    0    0 -2.13321141605E+01 -2.35559881906E+01  2.34446528527E+02  2.50349213405E+02  8.18511468454E+01  3.8445E-13  9.0
       -1    1    3    3    0  500  1.33248342078E+01 -2.68358588623E+01 -1.29987433603E+02  1.33395829853E+02  0.00000000000E+00  0.0000E+00  9.0
        2    1    3    3  500    0  8.00727995268E+00  5.03918470529E+01 -1.04459225574E+02  1.16254826090E+02  0.00000000000E+00  0.0000E+00  9.0
        1    1    4    4  504    0  5.34847168615E+00 -4.98318143328E+01  1.24958748147E+02  1.34634708034E+02  0.00000000000E+00  0.0000E+00  9.0
       -2    1    4    4    0  504 -2.66805858466E+01  2.62758261422E+01  1.09487780380E+02  1.15714505371E+02  0.00000000000E+00  0.0000E+00  9.0
</event>
<event>
 8    1   5.1859766E+00   4.5260000E+02  -1.0000000E+00   9.4600000E-02
       11   -1    0    0    0    0  0.00000000000E+00  0.00000000000E+00  2.42003728820E+02  2.42003728820E+02  0.00000000000E+00  0.0000E+00  9.0
      -11   -1    0    0    0    0  0.00000000000E+00  0.00000000000E+00 -2.11653305930E+02  2.11653305930E+02  0.00000000000E+00  0.0000E+00  9.0
       24    2    1    2    0    0 -1.25362519939E+01 -6.30312805978E+01 -1.86898049086E+02  2.13404146552E+02  8.05006153106E+01  1.6719E-13  9.0
      -24    2    1    2    0    0  1.25362519939E+01  6.30312805978E+01  2.17248471976E+02  2.40252888204E+02  7.99653160232E+01  1.8982E-13  9.0
       -3    1    3    3    0  500  9.42644873334E+00 -5.14419636711E+01 -1.80258970309E+02  1.87692381142E+02  0.00000000000E+00  0.0000E+00  9.0
        4    1    3    3  500    0 -2.19627007272E+01 -1.15893169267E+01 -6.63907877724E+00  2.57117654093E+01  5.87386917370E-01  0.0000E+00  9.0
        1    1    4    4  504    0  1.45088426098E+01  2.28719081561E+01  9.58322919287E+00  2.87309759378E+01  0.00000000000E+00  0.0000E+00  9.0
       -2    1    4    4    0  504 -1.97259061587E+00  4.01593724417E+01  2.07665242783E+02  2.11521912267E+02  0.00000000000E+00  0.0000E+00  9.0
</event>
<event>
 8    1   5.1859766E+00   3.8580000E+02  -1.0000000E+00   9.6450000E-02
       11   -1    0    0    0    0  0.00000000000E+00  0.00000000000E+00  1.50038347380E+02  1.50038347380E+02  0.00000000000E+00  0.0000E+00  9.0
      -11   -1    0    0    0    0  0.00000000000E+00  0.00000000000E+00 -2.47948610950E+02  2.47948610950E+02  0.00000000000E+00  0.0000E+00  9.0
       24    2    1    2    0    0  5.24208471291E+01  2.60306613598E+01 -2.20110608567E+02  2.40739876733E+02  7.79837656253E+01  1.3048E-13  9.0
      -24    2    1    2    0    0 -5.24208471291E+01 -2.60306613598E+01  1.22200344987E+02  1.57247081596E+02  7.98008760030E+01  1.4946E-13  9.0
       -3    1    3    3    0  500  7.23019877464E+01  2.32255635942E+01 -1.55039953808E+02  1.72639484224E+02  0.00000000000E+00  0.0000E+00  9.0
        4    1    3    3  500    0 -1.98811406172E+01  2.80509776557E+00 -6.50706547594E+01  6.81003925094E+01  5.87386917370E-01  0.0000E+00  9.0
        3    1    4    4  504    0 -2.67078275199E+01  2.63152916782E+01  2.94230470186E+01  4.76604482019E+01  0.00000000000E+00  0.0000E+00  9.0
       -4    1    4    4    0  504 -2.57130196092E+01 -5.23459530380E+01  9.27772979685E+01  1.09586633394E+02  5.87386917370E-01  0.0000E+00  9.0
</event>
<event>
 8    1   5.1859766E+00   5.0000000E+02  -1.0000000E+00   9.3490000E-02
       11   -1    0    0    0    0  0.00000000000E+00  0.00000000000E+00  2.49993975570E+02  2.49993975570E+02  0.00000000000E+00  0.0000E+00  9.0
      -11   -1    0    0    0    0  0.00000000000E+00  0.00000000000E+00 -2.49988518730E+02  2.49988518730E+02  0.00000000000E+00  0.0000E+00  9.0
       24    2    1    2    0    0  3.33258011242E+00 -2.18201404872E+01 -2.35506582260E+02  2.49837138604E+02  8.04240070953E+01  4.3173E-14  9.0
      -24    2    1    2    0    0 -3.33258011242E+00  2.18201404872E+01  2.35512039100E+02  2.50145355684E+02  8.13606402899E+01  3.5429E-13  9.0
       -1    1    3    3    0  500  2.06020174408E+01 -4.59915553627E+01 -1.79495492193E+02  1.86435774477E+02  0.00000000000E+00  0.0000E+00  9.0
        2    1    3    3  500    0 -1.72694373284E+01  2.41714148755E+01 -5.60110900673E+01  6.34013641277E+01  0.00000000000E+00  0.0000E+00  9.0
        1    1    4    4  504    0 -2.77924827373E+01 -1.11562737590E+01  1.71516327538E+02  1.74111272332E+02  0.00000000000E+00  0.0000E+00  9.0
       -2    1    4    4    0  504  2.44599026249E+01  3.29764142462E+01  6.39957115621E+01  7.60340833528E+01  0.00000000000E+00  0.0000E+00  9.0
</event>
<event>
 8    1   5.1859766E+00   4.9990000E+02  -1.0000000E+00   9.3490000E-02
       11   -1    0    0    0    0  0.00000000000E+00  0.00000000000E+00  2.49850810820E+02  2.49850810820E+02  0.00000000000E+00  0.0000E+00  9.0
      -11   -1    0    0    0    0  0.00000000000E+00  0.00000000000E+00 -2.50000000000E+02  2.50000000000E+02  0.00000000000E+00  0.0000E+00  9.0
       24    2    1    2    0    0  1.55986294816E+01 -7.72287217116E+01 -2.21538269912E+02  2.48276314015E+02  7.97140537568E+01  4.3645E-13  9.0
      -24    2    1    2    0    0 -1.55986294816E+01  7.72287217116E+01  2.21389080722E+02  2.51574496798E+02  8.98276665468E+01  5.3190E-14  9.0
       -3    1    3    3    0  500  8.09016611059E+00 -5.55136327769E+01 -4.98249305190E+01  7.50315794383E+01  0.00000000000E+00  0.0000E+00  9.0
        4    1    3    3  500    0  7.50846337098E+00 -2.17150889347E+01 -1.71713339393E+02  1.73244734577E+02  5.87386917370E-01  0.0000E+00  9.0
        1    1    4    4  504    0  1.99816910795E+01  8.04249407548E+01  1.68136565228E+02  1.87449576261E+02  0.00000000000E+00  0.0000E+00  9.0
       -2    1    4    4    0  504 -3.55803205611E+01 -3.19621904317E+00  5.32525154941E+01  6.41249205368E+01  0.00000000000E+00  0.0000E+00  9.0
</event>
<event>
 8    1   5.1859766E+00   4.7540000E+02  -1.0000000E+00   9.4050000E-02
       11   -1    0    0    0    0  0.00000000000E+00  0.00000000000E+00  2.25964177620E+02  2.25964177620E+02  0.00000000000E+00  0.0000E+00  9.0
      -11   -1    0    0    0    0  0.00000000000E+00  0.00000000000E+00 -2.49999959640E+02  2.49999959640E+02  0.00000000000E+00  0.0000E+00  9.0
       24    2    1    2    0    0 -3.57572871650E+01 -1.39226995030E+02 -1.82560785391E+02  2.46889488126E+02  8.34460259935E+01  1.0429E-13  9.0
      -24    2    1    2    0    0  3.57572871650E+01  1.39226995030E+02  1.58525003381E+02  2.29074649143E+02  8.17452044636E+01  3.5733E-14  9.0
       -3    1    3    3    0  500  2.56775704792E+01 -2.55133082754E+01 -5.02067733994E+01  6.18949644159E+01  0.00000000000E+00  0.0000E+00  9.0
        4    1    3    3  500    0 -6.14348576442E+01 -1.13713686755E+02 -1.32354011991E+02  1.84994523710E+02  5.87386917370E-01  0.0000E+00  9.0
        1    1    4    4  504    0  1.48292474617E+01  2.44133969068E+01 -4.15238996904E+00  2.88645608189E+01  0.00000000000E+00  0.0000E+00  9.0
       -2    1    4    4    0  504  2.09280397033E+01  1.14813598123E+02  1.62677393350E+02  2.00210088325E+02  0.00000000000E+00  0.0000E+00  9.0
</event>
<event>
 8    1   5.1859766E+00   4.9910000E+02  -1.0000000E+00   9.3510000E-02
       11   -1    0    0    0    0  0.00000000000E+00  0.00000000000E+00  2.49946092400E+02  2.49946092400E+02  0.00000000000E+00  0.0000E+00  9.0
      -11   -1    0    0    0    0  0.00000000000E+00  0.00000000000E+00 -2.49112927970E+02  2.49112927970E+02  0.00000000000E+00  0.0000E+00  9.0
       24    2    1    2    0    0 -9.57003216970E+01  3.48935555159E+01 -2.12516701937E+02  2.49748058657E+02  8.26718356612E+01  5.1613E-15  9.0
      -24    2    1    2    0    0  9.57003216970E+01 -3.48935555159E+01  2.13349866377E+02  2.49310961717E+02  7.91307674683E+01  2.6817E-14  9.0
       -1    1    3    3    0  500  1.82879398337E+00 -6.97657583886E+00  4.26454221879E+00  8.37874800939E+00  0.00000000000E+00  0.0000E+00  9.0
        2    1    3    3  500    0 -9.75291156804E+01  4.18701313547E+01 -2.16781244155E+02  2.41369310648E+02  0.00000000000E+00  0.0000E+00  9.0
       13    1    4    4    0    0  1.22548330038E+01 -2.16775116731E+00  1.17210236110E+02  1.17869125298E+02  1.05700000000E-01  0.0000E+00  9.0
      -14    1    4    4    0    0  8.34454886932E+01 -3.27258043486E+01  9.61396302666E+01  1.31441836419E+02  0.00000000000E+00  0.0000E+00  9.0
</event>
<event>
 8    1   5.1859766E+00   2.5280000E+02  -1.0000000E+00   1.0170000E-01
       11   -1    0    0    0    0  0.00000000000E+00  0.00000000000E+00  6.40483667370E+01  6.40483667370E+01  0.00000000000E+00  0.0000E+00  9.0
      -11   -1    0    0    0    0  0.00000000000E+00  0.00000000000E+00 -2.49403756740E+02  2.49403756740E+02  0.00000000000E+00  0.0000E+00  9.0
       24    2    1    2    0    0 -6.46376210522E+00  1.26558016265E+00 -2.12884797929E+02  2.28328769744E+02  8.22843119294E+01  2.7788E-13  9.0
      -24    2    1    2    0    0  6.46376210522E+00 -1.26558016265E+00  2.75294079300E+01  8.51233537297E+01  8.02791077150E+01  9.1712E-14  9.0
       -3    1    3    3    0  500 -7.40855492194E+00 -2.91781014167E+01 -2.85350780613E+01  4.14788978672E+01  0.00000000000E+00  0.0000E+00  9.0
        4    1    3    3  500    0  9.44792816715E-01  3.04436815793E+01 -1.84349719868E+02  1.86849871877E+02  5.87386917370E-01  0.0000E+00  9.0
        3    1    4    4  504    0  3.09145816387E+01 -1.63953453471E+01 -1.13278807879E+01  3.67809677699E+01  0.00000000000E+00  0.0000E+00  9.0
       -4    1    4    4    0  504 -2.44508195335E+01  1.51297651844E+01  3.88572887179E+01  4.83423859599E+01  5.87386917370E-01  0.0000E+00  9.0
</event>
<event>
 8    1   5.1859766E+00   4.8800000E+02  -1.0000000E+00   9.3760000E-02
       11   -1    0    0    0    0  0.00000000000E+00  0.00000000000E+00  2.49817742700E+02  2.49817742700E+02  0.00000000000E+00  0.0000E+00  9.0
      -11   -1    0    0    0    0  0.00000000000E+00  0.00000000000E+00 -2.38301008600E+02  2.38301008600E+02  0.00000000000E+00  0.0000E+00  9.0
       24    2    1    2    0    0 -5.06125717320E+01  1.11952356275E+02 -1.89466973901E+02  2.39648692298E+02  8.02421275137E+01  3.7234E-14  9.0
      -24    2    1    2    0    0  5.06125717320E+01 -1.11952356275E+02  2.00983708001E+02  2.48470059010E+02  7.90440184307E+01  6.0205E-14  9.0
       -1    1    3    3    0  500 -6.58916394806E+01  1.13546969628E+02 -1.72242606786E+02  2.16569014537E+02  0.00000000000E+00  0.0000E+00  9.0
        2    1    3    3  500    0  1.52790677486E+01 -1.59461335319E+00 -1.72243671150E+01  2.30796777604E+01  0.00000000000E+00  0.0000E+00  9.0
        1    1    4    4  504    0  6.99591262932E+01 -6.58687821638E+01  1.34337192670E+02  1.65164939227E+02  0.00000000000E+00  0.0000E+00  9.0
       -2    1    4    4    0  504 -1.93465545612E+01 -4.60835741107E+01  6.66465153316E+01  8.33051197829E+01  0.00000000000E+00  0.0000E+00  9.0
</event>
<event>
 8    1   5.1859766E+00   4.9980000E+02  -1.0000000E+00   9.3500000E-02
       11   -1    0    0    0    0  0.00000000000E+00  0.00000000000E+00  2.50000000000E+02  2.50000000000E+02  0.00000000000E+00  0.0000E+00  9.0
      -11   -1    0    0    0    0  0.00000000000E+00  0.00000000000E+00 -2.49774015140E+02  2.49774015140E+02  0.00000000000E+00  0.0000E+00  9.0
       24    2    1    2    0    0  1.41519297085E+02  1.76594167942E+02  6.99905877008E+01  2.49510693294E+02  7.83817077025E+01  1.2136E-13  9.0
      -24    2    1    2    0    0 -1.41519297085E+02 -1.76594167942E+02 -6.97646028378E+01  2.50263321832E+02  8.09408354699E+01  8.5136E-14  9.0
       -3    1    3    3    0  500  1.47411646085E+02  1.44378851637E+02  5.53529024507E+01  2.13633775446E+02  0.00000000000E+00  0.0000E+00  9.0
        4    1    3    3  500    0 -5.89234899954E+00  3.22153163055E+01  1.46376852501E+01  3.58769178479E+01  5.87386917370E-01  0.0000E+00  9.0
        1    1    4    4  504    0 -1.37366016511E+02 -1.79327244534E+02 -5.19795210331E+01  2.31796362635E+02  0.00000000000E+00  0.0000E+00  9.0
       -2    1    4    4    0  504 -4.15328057486E+00  2.73307659135E+00 -1.77850818047E+01  1.84669591971E+01  0.00000000000E+00  0.0000E+00  9.0
</event>
<event>
 8    1   5.1859766E+00   4.9350000E+02  -1.0000000E+00   9.3640000E-02
       11   -1    0    0    0    0  0.00000000000E+00  0.00000000000E+00  2.49800255620E+02  2.49800255620E+02  0.00000000000E+00  0.0000E+00  9.0
      -11   -1    0    0    0    0  0.00000000000E+00  0.00000000000E+00 -2.43761620140E+02  2.43761620140E+02  0.00000000000E+00  0.0000E+00  9.0
       24    2    1    2    0    0  7.70532302167E+01  1.89242061668E+02  1.15847376066E+02  2.47819143104E+02  7.90187000416E+01  7.0338E-14  9.0
      -24    2    1    2    0    0 -7.70532302167E+01 -1.89242061668E+02 -1.09808740596E+02  2.45742732663E+02  8.11281267758E+01  2.9279E-14  9.0
       -1    1    3    3    0  500  4.53867573714E+01  5.13688518884E+01  6.17942097812E+00  6.88251547957E+01  0.00000000000E+00  0.0000E+00  9.0
        2    1    3    3  500    0  3.16664728453E+01  1.37873209780E+02  1.09667955088E+02  1.78993988309E+02  0.00000000000E+00  0.0000E+00  9.0
        3    1    4    4  504    0 -2.71440756249E+01 -5.53984313336E+00 -4.11730137677E+00  2.80079073495E+01  0.00000000000E+00  0.0000E+00  9.0
       -4    1    4    4    0  504 -4.99091545919E+01 -1.83702218535E+02 -1.05691439219E+02  2.17734825314E+02  5.87386917370E-01  0.0000E+00  9.0
</event>
<event>
 8    1   5.1859766E+00   4.9110000E+02  -1.0000000E+00   9.3690000E-02
       11   -1    0    0    0    0  0.00000000000E+00  0.00000000000E+00  2.46110420020E+02  2.46110420020E+02  0.00000000000E+00  0.0000E+00  9.0
      -11   -1    0    0    0    0  0.00000000000E+00  0.00000000000E+00 -2.44982037440E+02  2.44982037440E+02  0.00000000000E+00  0.0000E+00  9.0
       24    2    1    2    0    0  4.50009454868E+01  1.88225013493E+01 -2.26638182154E+02  2.44526593688E+02  7.77754315913E+01  1.8922E-13  9.0
      -24    2    1    2    0    0 -4.50009454868E+01 -1.88225013493E+01  2.27766564724E+02  2.46565863772E+02  8.08563264064E+01  2.6945E-15  9.0
       -3    1    3    3    0  500  3.44832181609E+01 -2.46380570021E+01 -1.49212807508E+02  1.55114757880E+02  0.00000000000E+00  0.0000E+00  9.0
        4    1    3    3  500    0  1.05177273258E+01  4.34605583515E+01 -7.74253746454E+01  8.94118358088E+01  5.87386917370E-01  0.0000E+00  9.0
        3    1    4    4  504    0 -4.52008365329E+01 -4.31091477525E+01  2.00700207167E+02  2.10195355325E+02  0.00000000000E+00  0.0000E+00  9.0
       -4    1    4    4    0  504  1.99891046085E-01  2.42866464031E+01  2.70663575563E+01  3.63705084471E+01  5.87386917370E-01  0.0000E+00  9.0
</event>
<event>
 8    1   5.1859766E+00   4.9840000E+02  -1.0000000E+00   9.3530000E-02
       11   -1    0    0    0    0  0.00000000000E+00  0.00000000000E+00  2.48406916910E+02  2.48406916910E+02  0.00000000000E+00  0.0000E+00  9.0
      -11   -1    0    0    0    0  0.00000000000E+00  0.00000000000E+00 -2.49986315600E+02  2.49986315600E+02  0.00000000000E+00  0.0000E+00  9.0
       24    2    1    2    0    0  3.36163912918E+00 -3.55762782080E+01 -2.33785940534E+02  2.49496299022E+02  7.94705294137E+01  1.0823E-14  9.0
      -24    2    1    2    0    0 -3.36163912918E+00  3.55762782080E+01  2.32206541844E+02  2.48896933487E+02  8.21756243380E+01  1.9056E-15  9.0
       -1    1    3    3    0  500 -2.94914940141E+01 -4.22282895951E+01 -1.67127466910E+02  1.74884438579E+02  0.00000000000E+00  0.0000E+00  9.0
        2    1    3    3  500    0  3.28531331433E+01  6.65201138708E+00 -6.66584736242E+01  7.46118604428E+01  0.00000000000E+00  0.0000E+00  9.0
        1    1    4    4  504    0 -4.02441388571E+01  3.39472055809E+01  1.40177819474E+02  1.49739188430E+02  0.00000000000E+00  0.0000E+00  9.0
       -2    1    4    4    0  504  3.68824997279E+01  1.62907262709E+00  9.20287223706E+01  9.91577450579E+01  0.00000000000E+00  0.0000E+00  9.0
</event>
<event>
 8    1   5.1859766E+00   4.9030000E+02  -1.0000000E+00   9.3710000E-02
       11   -1    0    0    0    0  0.00000000000E+00  0.00000000000E+00  2.47624365950E+02  2.47624365950E+02  0.00000000000E+00  0.0000E+00  9.0
      -11   -1    0    0    0    0  0.00000000000E+00  0.00000000000E+00 -2.42661876800E+02  2.42661876800E+02  0.00000000000E+00  0.0000E+00  9.0
       24    2    1    2    0    0  7.66504269179E+01  3.79246722680E+01 -2.05637669694E+02  2.49042930942E+02  1.11453853867E+02  6.6354E-14  9.0
      -24    2    1    2    0    0 -7.66504269179E+01 -3.79246722680E+01  2.10600158844E+02  2.41243311799E+02  8.08228919865E+01  5.6384E-14  9.0
       -1    1    3    3    0  500  1.35848076240E+01  3.24165477371E+01 -1.35279038041E+00  3.51739904927E+01  0.00000000000E+00  0.0000E+00  9.0
        2    1    3    3  500    0  6.30656192940E+01  5.50812453091E+00 -2.04284879314E+02  2.13868940450E+02  0.00000000000E+00  0.0000E+00  9.0
        3    1    4    4  504    0 -4.26872989356E+01 -3.43074942668E+01  4.14617831102E+01  6.86898035517E+01  0.00000000000E+00  0.0000E+00  9.0
       -4    1    4    4    0  504 -3.39631279823E+01 -3.61717800114E+00  1.69138375734E+02  1.72553508247E+02  5.87386917370E-01  0.0000E+00  9.0
</event>
<event>
 8    1   5.1859766E+00   4.8960000E+02  -1.0000000E+00   9.3720000E-02
       11   -1    0    0    0    0  0.00000000000E+00  0.00000000000E+00  2.49996827460E+02  2.49996827460E+02  0.00000000000E+00  0.0000E+00  9.0
      -11   -1    0    0    0    0  0.00000000000E+00  0.00000000000E+00 -2.39743866430E+02  2.39743866430E+02  0.00000000000E+00  0.0000E+00  9.0
       24    2    1    2    0    0 -1.45603565050E+02 -6.38616000816E+00 -1.64094271171E+02  2.33823508299E+02  8.06555764173E+01  9.6452E-14  9.0
      -24    2    1    2    0    0  1.45603565050E+02  6.38616000816E+00  1.74347232211E+02  2.55917185595E+02  1.17709249034E+02  2.5848E-14  9.0
       -1    1    3    3    0  500 -1.11064519030E+02 -2.07557843635E+01 -7.08717600107E+01  1.33375171374E+02  0.00000000000E+00  0.0000E+00  9.0
        2    1    3    3  500    0 -3.45390460202E+01  1.43696243553E+01 -9.32225111600E+01  1.00448336925E+02  0.00000000000E+00  0.0000E+00  9.0
        1    1    4    4  504    0  4.43865909464E+01  4.47559364370E+01  1.76335898399E+01  6.54538523912E+01  0.00000000000E+00  0.0000E+00  9.0
       -2    1    4    4    0  504  1.01216974104E+02 -3.83697764288E+01  1.56713642371E+02  1.90463333204E+02  0.00000000000E+00  0.0000E+00  9.0
</event>
<event>
 8    1   5.1859766E+00   4.9870000E+02  -1.0000000E+00   9.3520000E-02
       11   -1    0    0    0    0  0.00000000000E+00  0.00000000000E+00  2.48692294870E+02  2.48692294870E+02  0.00000000000E+00  0.0000E+00  9.0
      -11   -1    0    0    0    0  0.00000000000E+00  0.00000000000E+00 -2.49999999240E+02  2.49999999240E+02  0.00000000000E+00  0.0000E+00  9.0
       24    2    1    2    0    0  2.14315837244E+01 -3.39452644086E+01 -2.32877734573E+02  2.50359474804E+02  8.26815191429E+01  1.1215E-13  9.0
      -24    2    1    2    0    0 -2.14315837244E+01  3.39452644086E+01  2.31570030193E+02  2.48332819301E+02  8.02054642870E+01  2.2749E-13  9.0
      -13    1    3    3    0    0 -2.77528358059E+01 -9.39269027144E-01 -4.07787331951E+01  4.93357717591E+01  1.05700000000E-01  0.0000E+00  9.0
       14    1    3    3    0    0  4.91844195304E+01 -3.30059953815E+01 -1.92099001378E+02  2.01023703045E+02  0.00000000000E+00  0.0000E+00  9.0
        1    1    4    4  500    0 -4.22344173821E+01  1.01407093797E+01  6.11537928446E+01  7.50091086309E+01  0.00000000000E+00  0.0000E+00  9.0
       -2    1    4    4    0  500  2.08028336577E+01  2.38045550289E+01  1.70416237348E+02  1.73323710670E+02  0.00000000000E+00  0.0000E+00  9.0
</event>
<event>
 8    1   5.1859766E+00   4.7860000E+02  -1.0000000E+00   9.3980000E-02
       11   -1    0    0    0    0  0.00000000000E+00  0.00000000000E+00  2.35659371150E+02  2.35659371150E+02  0.00000000000E+00  0.0000E+00  9.0
      -11   -1    0    0    0    0  0.00000000000E+00  0.00000000000E+00 -2.42961681630E+02  2.42961681630E+02  0.00000000000E+00  0.0000E+00  9.0
       24    2    1    2    0    0 -7.03182355166E+01 -9.23143432669E+00 -2.17952345204E+02  2.43118444756E+02  8.10769990485E+01  1.5222E-14  9.0
      -24    2    1    2    0    0  7.03182355166E+01  9.23143432669E+00  2.10650034724E+02  2.35502608013E+02  7.78342317101E+01  2.5801E-14  9.0
       -1    1    3    3    0  500 -7.91035252862E+01 -2.37083804168E+01 -1.33436338273E+02  1.56922628663E+02  0.00000000000E+00  0.0000E+00  9.0
        2    1    3    3  500    0  8.78528976960E+00  1.44769460901E+01 -8.45160069305E+01  8.61958160929E+01  0.00000000000E+00  0.0000E+00  9.0
        1    1    4    4  504    0  1.99354786621E+01  3.90072873528E+01  6.35238276612E+01  7.71639064384E+01  0.00000000000E+00  0.0000E+00  9.0
       -2    1    4    4    0  504  5.03827568546E+01 -2.97758530261E+01  1.47126207063E+02  1.58338701575E+02  0.00000000000E+00  0.0000E+00  9.0
</event>
<event>
 8    1   5.1859766E+00   4.8720000E+02  -1.0000000E+00   9.3780000E-02
       11   -1    0    0    0    0  0.00000000000E+00  0.00000000000E+00  2.42742487540E+02  2.42742487540E+02  0.00000000000E+00  0.0000E+00  9.0
      -11   -1    0    0    0    0  0.00000000000E+00  0.00000000000E+00 -2.44478149430E+02  2.44478149430E+02  0.00000000000E+00  0.0000E+00  9.0
       24    2    1    2    0    0  1.30057503108E+01 -3.57989979845E+01 -2.27440003671E+02  2.44398734861E+02  8.09386714361E+01  2.0594E-14  9.0
      -24    2    1    2    0    0 -1.30057503108E+01  3.57989979845E+01  2.25704341781E+02  2.42821902102E+02  8.10512704643E+01  1.2286E-13  9.0
       -3    1    3    3    0  500  1.76396435040E+01 -4.13208824111E+01 -2.31692660683E+02  2.36008604421E+02  0.00000000000E+00  0.0000E+00  9.0
        4    1    3    3  500    0 -4.63389319317E+00  5.52188442658E+00  4.25265701219E+00  8.39013044000E+00  5.87386917370E-01  0.0000E+00  9.0
        1    1    4    4  504    0  1.67814704599E+01  1.25485987217E+01  8.92841180032E+00  2.27772170809E+01  0.00000000000E+00  0.0000E+00  9.0
       -2    1    4    4    0  504 -2.97872207707E+01  2.32503992628E+01  2.16775929981E+02  2.20044685021E+02  0.00000000000E+00  0.0000E+00  9.0
</event>
<event>
 8    1   5.1859766E+00   5.0000000E+02  -1.0000000E+00   9.3490000E-02
       11   -1    0    0    0    0  0.00000000000E+00  0.00000000000E+00  2.49999261840E+02  2.49999261840E+02  0.00000000000E+00  0.0000E+00  9.0
      -11   -1    0    0    0    0  0.00000000000E+00  0.00000000000E+00 -2.49964569900E+02  2.49964569900E+02  0.00000000000E+00  0.0000E+00  9.0
       24    2    1    2    0    0  3.82343959267E+00  2.41514857578E+00 -2.34259728077E+02  2.48232748402E+02  8.19843006156E+01  7.5129E-14  9.0
      -24    2    1    2    0    0 -3.82343959267E+00 -2.41514857578E+00  2.34294420017E+02  2.51731083343E+02  9.19467858976E+01  1.6693E-13  9.0
       -3    1    3    3    0  500  5.65000702444E+00 -9.50699764960E-01  5.79360953023E+00  8.14814830548E+00  0.00000000000E+00  0.0000E+00  9.0
        4    1    3    3  500    0 -1.82656743177E+00  3.36584834074E+00 -2.40053337607E+02  2.40084600097E+02  5.87386917370E-01  0.0000E+00  9.0
        1    1    4    4  504    0 -3.03186553821E+01  2.84749017298E+01  1.74588000257E+02  1.79474262017E+02  0.00000000000E+00  0.0000E+00  9.0
       -2    1    4    4    0  504  2.64952157894E+01 -3.08900503055E+01  5.97064197602E+01  7.22568213264E+01  0.00000000000E+00  0.0000E+00  9.0
</event>
<event>
 8    1   5.1859766E+00   4.8740000E+02  -1.0000000E+00   9.3770000E-02
       11   -1    0    0    0    0  0.00000000000E+00  0.00000000000E+00  2.37661951210E+02  2.37661951210E+02  0.00000000000E+00  0.0000E+00  9.0
      -11   -1    0    0    0    0  0.00000000000E+00  0.00000000000E+00 -2.49941242220E+02  2.49941242220E+02  0.00000000000E+00  0.0000E+00  9.0
       24    2    1    2    0    0 -6.86009994044E+01 -2.08563909508E+01 -2.24906415841E+02  2.48841524285E+02  7.87281535357E+01  7.1430E-14  9.0
      -24    2    1    2    0    0  6.86009994044E+01  2.08563909508E+01  2.12627124821E+02  2.38761669139E+02  8.15828062617E+01  5.7802E-14  9.0
       -3    1    3    3    0  500 -7.67153315530E+01  7.06113387976E+00 -1.72145991750E+02  1.88598367391E+02  0.00000000000E+00  0.0000E+00  9.0
        4    1    3    3  500    0  8.11433214852E+00 -2.79175248305E+01 -5.27604240916E+01  6.02431568943E+01  5.87386917370E-01  0.0000E+00  9.0
        3    1    4    4  504    0  5.81802552670E+01  2.35160098826E+01  6.36044751701E+01  8.93502886699E+01  0.00000000000E+00  0.0000E+00  9.0
       -4    1    4    4    0  504  1.04207441374E+01 -2.65961893185E+00  1.49022649651E+02  1.49411380469E+02  5.87386917370E-01  0.0000E+00  9.0
</event>
<event>
 8    1   5.1859766E+00   4.9990000E+02  -1.0000000E+00   9.3490000E-02
       11   -1    0    0    0    0  0.00000000000E+00  0.00000000000E+00  2.49999999860E+02  2.49999999860E+02  0.00000000000E+00  0.0000E+00  9.0
      -11   -1    0    0    0    0  0.00000000000E+00  0.00000000000E+00 -2.49922547740E+02  2.49922547740E+02  0.00000000000E+00  0.0000E+00  9.0
       24    2    1    2    0    0 -1.37852899329E+02  6.51021168084E+01 -1.80250410084E+02  2.48857576485E+02  7.87284927599E+01  2.1088E-15  9.0
      -24    2    1    2    0    0  1.37852899329E+02 -6.51021168084E+01  1.80327862204E+02  2.51064971111E+02  8.52864254480E+01  6.1413E-14  9.0
      -13    1    3    3    0    0 -7.98691264783E+01  6.66271218805E+01 -1.52409746237E+02  1.84518271873E+02  1.05700000000E-01  0.0000E+00  9.0
       14    1    3    3    0    0 -5.79837728510E+01 -1.52500507209E+00 -2.78406638461E+01  6.43393046115E+01  0.00000000000E+00  0.0000E+00  9.0
        3    1    4    4  500    0  8.37004871136E+01 -4.32742024762E+01  1.66103754164E+02  1.90968283467E+02  0.00000000000E+00  0.0000E+00  9.0
       -4    1    4    4    0  500  5.41524122156E+01 -2.18279143322E+01  1.42241080396E+01  6.00966876440E+01  5.87386917370E-01  0.0000E+00  9.0
</event>
<event>
 8    1   5.1859766E+00   4.9690000E+02  -1.0000000E+00   9.3560000E-02
       11   -1    0    0    0    0  0.00000000000E+00  0.00000000000E+00  2.49999730500E+02  2.49999730500E+02  0.00000000000E+00  0.0000E+00  9.0
      -11   -1    0    0    0    0  0.00000000000E+00  0.00000000000E+00 -2.46920658000E+02  2.46920658000E+02  0.00000000000E+00  0.0000E+00  9.0
       24    2    1    2    0    0 -1.09383097795E+01  7.01172949323E+00 -2.33581799290E+02  2.46946504011E+02  7.90778598114E+01  4.7569E-13  9.0
      -24    2    1    2    0    0  1.09383097795E+01 -7.01172949323E+00  2.36660871790E+02  2.49973884486E+02  7.94340211589E+01  1.2486E-15  9.0
       -1    1    3    3    0  500 -5.35038862353E+00  3.78500073341E+01 -6.44351007896E+01  7.49208377381E+01  0.00000000000E+00  0.0000E+00  9.0
        2    1    3    3  500    0 -5.58792115593E+00 -3.08382778408E+01 -1.69146698500E+02  1.72025666272E+02  0.00000000000E+00  0.0000E+00  9.0
        1    1    4    4  504    0 -3.01675473722E+01  1.23901093502E+01  1.30060746399E+02  1.34087260685E+02  0.00000000000E+00  0.0000E+00  9.0
       -2    1    4    4    0  504  4.11058571516E+01 -1.94018388434E+01  1.06600125390E+02  1.15886623801E+02  0.00000000000E+00  0.0000E+00  9.0
</event>
<event>
 8    1   5.1859766E+00   5.0000000E+02  -1.0000000E+00   9.3490000E-02
       11   -1    0    0    0    0  0.00000000000E+00  0.00000000000E+00  2.50000000000E+02  2.50000000000E+02  0.00000000000E+00  0.0000E+00  9.0
      -11   -1    0    0    0    0  0.00000000000E+00  0.00000000000E+00 -2.50000000000E+02  2.50000000000E+02  0.00000000000E+00  0.0000E+00  9.0
       24    2    1    2    0    0 -7.07454587419E+01  7.52681027183E+00 -2.25930505372E+02  2.49710068775E+02  7.90503155239E+01  1.8099E-14  9.0
      -24    2    1    2    0    0  7.07454587419E+01 -7.52681027183E+00  2.25930505372E+02  2.50289931223E+02  8.08633638210E+01  1.4188E-13  9.0
       -1    1    3    3    0  500 -3.21627587656E+01 -1.64364390253E+01 -1.85244411056E+02  1.88732857253E+02  0.00000000000E+00  0.0000E+00  9.0
        2    1    3    3  500    0 -3.85826999763E+01  2.39632492971E+01 -4.06860943161E+01  6.09772115223E+01  0.00000000000E+00  0.0000E+00  9.0
        3    1    4    4  504    0  5.02143292305E+01  2.83619764027E+01  8.00390090463E+01  9.86515257594E+01  0.00000000000E+00  0.0000E+00  9.0
       -4    1    4    4    0  504  2.05311295114E+01 -3.58887866745E+01  1.45891496326E+02  1.51638405464E+02  5.87386917370E-01  0.0000E+00  9.0
</event>
<event>
 8    1   5.1859766E+00   4.8590000E+02  -1.0000000E+00   9.3810000E-02
       11   -1    0    0    0    0  0.00000000000E+00  0.00000000000E+00  2.36106666580E+02  2.36106666580E+02  0.00000000000E+00  0.0000E+00  9.0
      -11   -1    0    0    0    0  0.00000000000E+00  0.00000000000E+00 -2.49999996840E+02  2.49999996840E+02  0.00000000000E+00  0.0000E+00  9.0
       24    2    1    2    0    0  1.47884910879E+02 -4.15397551714E+01 -1.77901675649E+02  2.47528063082E+02  7.76249810881E+01  1.7761E-13  9.0
      -24    2    1    2    0    0 -1.47884910879E+02  4.15397551714E+01  1.64008345389E+02  2.38578600335E+02  8.01592979952E+01  7.9676E-15  9.0
       -1    1    3    3    0  500  6.44841802363E+01 -5.60559321019E+01 -7.04916480806E+01  1.10767998419E+02  0.00000000000E+00  0.0000E+00  9.0
        2    1    3    3  500    0  8.34007306427E+01  1.45161769305E+01 -1.07410027569E+02  1.36760064663E+02  0.00000000000E+00  0.0000E+00  9.0
        1    1    4    4  504    0 -9.81944909141E+00  2.77262469148E+01  5.40574378353E+01  6.15416357741E+01  0.00000000000E+00  0.0000E+00  9.0
       -2    1    4    4    0  504 -1.38065461788E+02  1.38135082566E+01  1.09950907554E+02  1.77036964561E+02  0.00000000000E+00  0.0000E+00  9.0
</event>
<event>
 8    1   5.1859766E+00   4.6380000E+02  -1.0000000E+00   9.4330000E-02
       11   -1    0    0    0    0  0.00000000000E+00  0.00000000000E+00  2.49990159630E+02  2.49990159630E+02  0.00000000000E+00  0.0000E+00  9.0
      -11   -1    0    0    0    0  0.00000000000E+00  0.00000000000E+00 -2.15108744750E+02  2.15108744750E+02  0.00000000000E+00  0.0000E+00  9.0
       24    2    1    2    0    0 -2.75053280488E+01 -1.35090429470E+01 -2.01104003173E+02  2.18324852918E+02  7.92709530474E+01  1.8340E-14  9.0
      -24    2    1    2    0    0  2.75053280488E+01  1.35090429470E+01  2.35985418053E+02  2.46774051476E+02  6.53397094887E+01  2.8391E-13  9.0
      -13    1    3    3    0    0 -4.99549232113E+01 -1.47883137210E+01 -1.80353418022E+02  1.87727342549E+02  1.05700000000E-01  0.0000E+00  9.0
       14    1    3    3    0    0  2.24495951625E+01  1.27927077401E+00 -2.07505851508E+01  3.05975103689E+01  0.00000000000E+00  0.0000E+00  9.0
        3    1    4    4  500    0  1.09440593106E+01  1.30154010409E+01  2.27527729928E+02  2.28162312806E+02  0.00000000000E+00  0.0000E+00  9.0
       -4    1    4    4    0  500  1.65612687381E+01  4.93641906151E-01  8.45768812455E+00  1.86117386708E+01  5.87386917370E-01  0.0000E+00  9.0
</event>
<event>
 8    1   5.1859766E+00   4.8550000E+02  -1.0000000E+00   9.3820000E-02
       11   -1    0    0    0    0  0.00000000000E+00  0.00000000000E+00  2.41128980880E+02  2.41128980880E+02  0.00000000000E+00  0.0000E+00  9.0
      -11   -1    0    0    0    0  0.00000000000E+00  0.00000000000E+00 -2.44332907450E+02  2.44332907450E+02  0.00000000000E+00  0.0000E+00  9.0
       24    2    1    2    0    0 -1.68516790360E+01 -1.81720729353E+01 -2.29970825676E+02  2.45293900622E+02  8.16597434423E+01  1.7279E-13  9.0
      -24    2    1    2    0    0  1.68516790360E+01  1.81720729353E+01  2.26766899106E+02  2.40167987717E+02  7.51214514811E+01  2.6071E-13  9.0
       -3    1    3    3    0  500 -2.04517600502E+01  2.53129053516E+01 -4.68360446852E+01  5.70318573102E+01  0.00000000000E+00  0.0000E+00  9.0
        4    1    3    3  500    0  3.60008101426E+00 -4.34849782870E+01 -1.83134780991E+02  1.88262043312E+02  5.87386917370E-01  0.0000E+00  9.0
        3    1    4    4  504    0 -2.01071816231E+01  1.19155637059E+01  2.23398762615E+01  3.23318648183E+01  0.00000000000E+00  0.0000E+00  9.0
       -4    1    4    4    0  504  3.69588606590E+01  6.25650922943E+00  2.04427022845E+02  2.07836122899E+02  5.87386917370E-01  0.0000E+00  9.0
</event>
<event>
 8    1   5.1859766E+00   4.8900000E+02  -1.0000000E+00   9.3740000E-02
       11   -1    0    0    0    0  0.00000000000E+00  0.00000000000E+00  2.39160395130E+02  2.39160395130E+02  0.00000000000E+00  0.0000E+00  9.0
      -11   -1    0    0    0    0  0.00000000000E+00  0.00000000000E+00 -2.50000000000E+02  2.50000000000E+02  0.00000000000E+00  0.0000E+00  9.0
       24    2    1    2    0    0  9.10651093751E+00 -6.65924226027E-01 -2.36106875834E+02  2.50317106922E+02  8.26367061628E+01  1.0332E-13  9.0
      -24    2    1    2    0    0 -9.10651093751E+00  6.65924226027E-01  2.25267270954E+02  2.38843288204E+02  7.88504975284E+01  3.4652E-14  9.0
       -1    1    3    3    0  500  2.29610875088E+01 -1.22253873283E+01 -2.29702378416E+02  2.31170617261E+02  0.00000000000E+00  0.0000E+00  9.0
        2    1    3    3  500    0 -1.38545765712E+01  1.15594631023E+01 -6.40449741814E+00  1.91464896616E+01  0.00000000000E+00  0.0000E+00  9.0
        3    1    4    4  504    0 -3.98631310114E+01 -1.75323665861E+01  1.29263992877E+02  1.36402466791E+02  0.00000000000E+00  0.0000E+00  9.0
       -4    1    4    4    0  504  3.07566200739E+01  1.81982908122E+01  9.60032780768E+01  1.02440821413E+02  5.87386917370E-01  0.0000E+00  9.0
</event>
<event>
 8    1   5.1859766E+00   4.7350000E+02  -1.0000000E+00   9.4100000E-02
       11   -1    0    0    0    0  0.00000000000E+00  0.00000000000E+00  2.24233235690E+02  2.24233235690E+02  0.00000000000E+00  0.0000E+00  9.0
      -11   -1    0    0    0    0  0.00000000000E+00  0.00000000000E+00 -2.49999987640E+02  2.49999987640E+02  0.00000000000E+00  0.0000E+00  9.0
       24    2    1    2    0    0 -1.34521871105E+02 -6.95999545563E+00 -1.90718920450E+02  2.46655122016E+02  7.95013663832E+01  1.8603E-14  9.0
      -24    2    1    2    0    0  1.34521871105E+02  6.95999545563E+00  1.64952168500E+02  2.27578101317E+02  8.02371420473E+01  5.5025E-14  9.0
       -3    1    3    3    0  500 -9.62240417405E+01  1.92624807240E+01 -8.00366102363E+01  1.26633203982E+02  0.00000000000E+00  0.0000E+00  9.0
        4    1    3    3  500    0 -3.82978293643E+01 -2.62224761797E+01 -1.10682310214E+02  1.20021918034E+02  5.87386917370E-01  0.0000E+00  9.0
        1    1    4    4  504    0  9.83438170725E+00 -1.17815486458E+01  6.46910799252E+01  6.64865082099E+01  0.00000000000E+00  0.0000E+00  9.0
       -2    1    4    4    0  504  1.24687489398E+02  1.87415441015E+01  1.00261088575E+02  1.61091593107E+02  0.00000000000E+00  0.0000E+00  9.0
</event>
<event>
 8    1   5.1859766E+00   4.9070000E+02  -1.0000000E+00   9.3700000E-02
       11   -1    0    0    0    0  0.00000000000E+00  0.00000000000E+00  2.40852949680E+02  2.40852949680E+02  0.00000000000E+00  0.0000E+00  9.0
      -11   -1    0    0    0    0  0.00000000000E+00  0.00000000000E+00 -2.49918944950E+02  2.49918944950E+02  0.00000000000E+00  0.0000E+00  9.0
       24    2    1    2    0    0  1.11471642726E+01 -2.32215380246E+01 -2.33862546896E+02  2.49360842462E+02  8.26174304439E+01  1.1891E-13  9.0
      -24    2    1    2    0    0 -1.11471642726E+01  2.32215380246E+01  2.24796551616E+02  2.41411052172E+02  8.41564459394E+01  1.3201E-13  9.0
       -3    1    3    3    0  500 -1.31587623868E+01  8.27517516038E+00 -1.88010038912E+02  1.88651547259E+02  0.00000000000E+00  0.0000E+00  9.0
        4    1    3    3  500    0  2.43059266594E+01 -3.14967131850E+01 -4.58525079832E+01  6.07092952023E+01  5.87386917370E-01  0.0000E+00  9.0
        1    1    4    4  504    0  1.41442106815E+01  4.85579321776E+01  1.08089419376E+02  1.19336725505E+02  0.00000000000E+00  0.0000E+00  9.0
       -2    1    4    4    0  504 -2.52913749542E+01 -2.53363941530E+01  1.16707132240E+02  1.22074326668E+02  0.00000000000E+00  0.0000E+00  9.0
</event>
<event>
 8    1   5.1859766E+00   4.7860000E+02  -1.0000000E+00   9.3980000E-02
       11   -1    0    0    0    0  0.00000000000E+00  0.00000000000E+00  2.44973245540E+02  2.44973245540E+02  0.00000000000E+00  0.0000E+00  9.0
      -11   -1    0    0    0    0  0.00000000000E+00  0.00000000000E+00 -2.33794228490E+02  2.33794228490E+02  0.00000000000E+00  0.0000E+00  9.0
       24    2    1    2    0    0 -1.91009237720E+02 -1.55584644279E+01 -1.13442207513E+02  2.36636664712E+02  8.00073867275E+01  3.4692E-14  9.0
      -24    2    1    2    0    0  1.91009237720E+02  1.55584644279E+01  1.24621224563E+02  2.42130809321E+02  7.98140620505E+01  4.2601E-14  9.0
       -1    1    3    3    0  500 -7.07604589917E+01  1.39589830941E+01 -5.43230729384E+00  7.23284572507E+01  0.00000000000E+00  0.0000E+00  9.0
        2    1    3    3  500    0 -1.20248778729E+02 -2.95174475219E+01 -1.08009900219E+02  1.64308207462E+02  0.00000000000E+00  0.0000E+00  9.0
       13    1    4    4    0    0  1.60888282981E+02  3.76743245742E+01  1.20552576068E+02  2.04541753933E+02  1.05700000000E-01  0.0000E+00  9.0
      -14    1    4    4    0    0  3.01209547391E+01 -2.21158601463E+01  4.06864849500E+00  3.75890553882E+01  0.00000000000E+00  0.0000E+00  9.0
</event>
</LesHouchesEvents>
